version 2
run Experiment1-FIX-0-20171013-15:04:50-13205
attr configname Experiment1-FIX
attr datetime 20171013-15:04:50
attr experiment Ballwerfen
attr inifile omnetpp.ini
attr iterationvars ""
attr iterationvars2 $repetition=0
attr measurement ""
attr network Playground
attr processid 13205
attr repetition 0
attr replication #0
attr resultdir results
attr runnumber 0
attr seedset 0

vector 3  Playground.boy  #anzahl-wuerfe  ETV
vector 0  Playground  #anzahl-wuerfe-gesamt  ETV
vector 2  Playground.girl  #anzahl-verlorener-wuerfe  ETV
vector 1  Playground.girl  #anzahl-wuerfe  ETV
vector 4  Playground.boy  #anzahl-verlorener-wuerfe  ETV
0	0	0	1
0	2	10	2
0	4	12	3
0	6	13	4
0	8	15	5
0	10	16	6
0	12	18	7
0	14	19	8
0	16	21	9
0	18	22	10
0	20	24	11
0	22	25	12
0	24	27	13
0	26	37	14
0	28	39	15
0	30	40	16
0	32	42	17
0	34	43	18
0	36	45	19
0	38	46	20
0	40	48	21
0	42	49	22
0	44	51	23
0	46	52	24
0	48	62	25
0	50	63	26
0	52	65	27
0	54	75	28
0	56	77	29
0	58	87	30
0	60	97	31
0	62	98	32
0	64	100	33
0	66	101	34
0	68	103	35
0	70	113	36
0	72	115	37
0	74	116	38
0	76	126	39
0	78	136	40
0	80	138	41
0	82	139	42
0	84	141	43
0	86	142	44
0	88	144	45
0	90	145	46
0	92	147	47
0	94	148	48
0	96	150	49
0	98	151	50
0	100	153	51
0	102	154	52
0	104	156	53
0	106	166	54
0	108	168	55
0	110	169	56
0	112	171	57
0	114	172	58
0	116	182	59
0	118	183	60
0	120	185	61
0	122	186	62
0	124	188	63
0	126	189	64
0	128	191	65
0	130	192	66
0	132	194	67
0	134	204	68
0	136	206	69
0	138	207	70
0	140	209	71
0	142	210	72
0	144	220	73
0	146	221	74
0	148	223	75
0	150	224	76
0	152	234	77
0	154	235	78
0	156	237	79
0	158	238	80
0	160	240	81
0	162	241	82
0	164	243	83
0	166	244	84
0	168	246	85
0	170	247	86
0	172	249	87
0	174	250	88
0	176	252	89
0	178	253	90
0	180	263	91
0	182	273	92
0	184	275	93
0	186	276	94
0	188	278	95
0	190	279	96
0	192	281	97
0	194	282	98
0	196	284	99
0	198	285	100
0	200	287	101
0	202	288	102
0	204	290	103
0	206	291	104
0	208	293	105
0	210	294	106
0	212	296	107
0	214	297	108
0	216	299	109
0	218	300	110
0	220	302	111
0	222	303	112
0	224	305	113
0	226	306	114
0	228	316	115
0	230	317	116
0	232	319	117
0	234	320	118
0	236	322	119
0	238	332	120
0	240	334	121
0	242	335	122
0	244	337	123
0	246	338	124
0	248	340	125
0	250	341	126
0	252	343	127
0	254	344	128
0	256	346	129
0	258	347	130
0	260	349	131
0	262	350	132
0	264	352	133
0	266	353	134
0	268	355	135
0	270	365	136
0	272	367	137
0	274	368	138
0	276	370	139
0	278	380	140
0	280	382	141
0	282	383	142
0	284	385	143
0	286	386	144
0	288	388	145
0	290	389	146
0	292	391	147
0	294	392	148
0	296	394	149
0	298	395	150
0	300	397	151
0	302	398	152
0	304	400	153
0	306	401	154
0	308	403	155
0	310	413	156
0	312	415	157
0	314	416	158
0	316	426	159
0	318	427	160
0	320	429	161
0	322	430	162
0	324	432	163
0	326	433	164
0	328	435	165
0	330	445	166
0	332	447	167
0	334	448	168
0	336	450	169
0	338	451	170
0	340	453	171
0	342	454	172
0	344	456	173
0	346	457	174
0	348	459	175
0	350	460	176
0	352	462	177
0	354	463	178
0	356	465	179
0	358	466	180
0	360	468	181
0	362	469	182
0	364	471	183
0	366	472	184
0	368	474	185
0	370	475	186
0	372	477	187
0	374	478	188
0	376	480	189
0	378	481	190
0	380	483	191
0	382	484	192
0	384	486	193
0	386	487	194
0	388	489	195
0	390	490	196
0	392	492	197
0	394	493	198
0	396	495	199
0	398	496	200
0	400	498	201
0	402	499	202
0	404	501	203
0	406	502	204
0	408	504	205
0	410	505	206
0	412	507	207
0	414	508	208
0	416	510	209
0	418	511	210
0	420	513	211
0	422	514	212
0	424	516	213
0	426	517	214
0	428	519	215
0	430	529	216
0	432	531	217
0	434	532	218
0	436	534	219
0	438	535	220
0	440	537	221
0	442	538	222
0	444	540	223
0	446	541	224
0	448	543	225
0	450	544	226
0	452	546	227
0	454	547	228
0	456	549	229
0	458	550	230
0	460	552	231
0	462	553	232
0	464	555	233
0	466	556	234
0	468	558	235
0	470	559	236
0	472	561	237
0	474	562	238
0	476	564	239
0	478	565	240
0	480	567	241
0	482	577	242
0	484	579	243
0	486	580	244
0	488	582	245
0	490	592	246
0	492	594	247
0	494	595	248
0	496	597	249
0	498	607	250
0	500	609	251
0	502	610	252
0	504	612	253
0	506	613	254
0	508	615	255
0	510	616	256
0	512	618	257
0	514	619	258
0	516	621	259
0	518	622	260
0	520	624	261
0	522	625	262
0	524	627	263
0	526	628	264
0	528	630	265
0	530	631	266
0	532	641	267
0	534	642	268
0	536	644	269
0	538	645	270
0	540	647	271
0	542	648	272
0	544	650	273
0	546	651	274
0	548	653	275
0	550	654	276
0	552	656	277
0	554	657	278
0	556	659	279
0	558	660	280
0	560	662	281
0	562	663	282
0	564	665	283
0	566	666	284
0	568	668	285
0	570	669	286
0	572	671	287
0	574	672	288
0	576	674	289
0	578	675	290
0	580	677	291
0	582	678	292
0	584	680	293
0	586	681	294
0	588	683	295
0	590	684	296
0	592	686	297
0	594	687	298
0	596	697	299
0	598	698	300
0	600	700	301
0	602	701	302
0	604	703	303
0	606	704	304
0	608	706	305
0	610	707	306
0	612	717	307
0	614	718	308
0	616	720	309
0	618	721	310
0	620	723	311
0	622	724	312
0	624	726	313
0	626	727	314
0	628	729	315
0	630	730	316
0	632	732	317
0	634	733	318
0	636	735	319
0	638	736	320
0	640	738	321
0	642	739	322
0	644	741	323
0	646	742	324
0	648	744	325
0	650	745	326
0	652	747	327
0	654	748	328
0	656	750	329
0	658	760	330
0	660	762	331
0	662	763	332
0	664	765	333
0	666	766	334
0	668	768	335
0	670	769	336
0	672	771	337
0	674	772	338
0	676	774	339
0	678	775	340
0	680	777	341
0	682	778	342
0	684	780	343
0	686	781	344
0	688	783	345
0	690	793	346
0	692	795	347
0	694	796	348
0	696	798	349
0	698	808	350
0	700	810	351
0	702	811	352
0	704	821	353
0	706	822	354
0	708	824	355
0	710	825	356
0	712	827	357
0	714	828	358
0	716	830	359
0	718	831	360
0	720	833	361
0	722	834	362
0	724	836	363
0	726	837	364
0	728	839	365
0	730	840	366
0	732	842	367
0	734	843	368
0	736	845	369
0	738	846	370
0	740	848	371
0	742	849	372
0	744	851	373
0	746	852	374
0	748	854	375
0	750	855	376
0	752	857	377
0	754	858	378
0	756	860	379
0	758	861	380
0	760	863	381
0	762	864	382
0	764	866	383
0	766	867	384
0	768	869	385
0	770	870	386
0	772	872	387
0	774	873	388
0	776	875	389
0	778	876	390
0	780	878	391
0	782	879	392
0	784	881	393
0	786	882	394
0	788	884	395
0	790	885	396
0	792	887	397
0	794	888	398
0	796	890	399
0	798	891	400
0	800	893	401
0	802	894	402
0	804	896	403
0	806	897	404
0	808	899	405
0	810	900	406
1	2	10	1
1	6	13	2
1	10	16	3
1	14	19	4
1	18	22	5
1	22	25	6
1	26	37	7
1	30	40	8
1	34	43	9
1	38	46	10
1	42	49	11
1	46	52	12
1	50	63	13
1	54	75	14
1	58	87	15
1	62	98	16
1	66	101	17
1	70	113	18
1	74	116	19
1	78	136	20
1	82	139	21
1	86	142	22
1	90	145	23
1	94	148	24
1	98	151	25
1	102	154	26
1	106	166	27
1	110	169	28
1	114	172	29
1	118	183	30
1	122	186	31
1	126	189	32
1	130	192	33
1	134	204	34
1	138	207	35
1	142	210	36
1	146	221	37
1	150	224	38
1	154	235	39
1	158	238	40
1	162	241	41
1	166	244	42
1	170	247	43
1	174	250	44
1	178	253	45
1	182	273	46
1	186	276	47
1	190	279	48
1	194	282	49
1	198	285	50
1	202	288	51
1	206	291	52
1	210	294	53
1	214	297	54
1	218	300	55
1	222	303	56
1	226	306	57
1	230	317	58
1	234	320	59
1	238	332	60
1	242	335	61
1	246	338	62
1	250	341	63
1	254	344	64
1	258	347	65
1	262	350	66
1	266	353	67
1	270	365	68
1	274	368	69
1	278	380	70
1	282	383	71
1	286	386	72
1	290	389	73
1	294	392	74
1	298	395	75
1	302	398	76
1	306	401	77
1	310	413	78
1	314	416	79
1	318	427	80
1	322	430	81
1	326	433	82
1	330	445	83
1	334	448	84
1	338	451	85
1	342	454	86
1	346	457	87
1	350	460	88
1	354	463	89
1	358	466	90
1	362	469	91
1	366	472	92
1	370	475	93
1	374	478	94
1	378	481	95
1	382	484	96
1	386	487	97
1	390	490	98
1	394	493	99
1	398	496	100
1	402	499	101
1	406	502	102
1	410	505	103
1	414	508	104
1	418	511	105
1	422	514	106
1	426	517	107
1	430	529	108
1	434	532	109
1	438	535	110
1	442	538	111
1	446	541	112
1	450	544	113
1	454	547	114
1	458	550	115
1	462	553	116
1	466	556	117
1	470	559	118
1	474	562	119
1	478	565	120
1	482	577	121
1	486	580	122
1	490	592	123
1	494	595	124
1	498	607	125
1	502	610	126
1	506	613	127
1	510	616	128
1	514	619	129
1	518	622	130
1	522	625	131
1	526	628	132
1	530	631	133
1	534	642	134
1	538	645	135
1	542	648	136
1	546	651	137
1	550	654	138
1	554	657	139
1	558	660	140
1	562	663	141
1	566	666	142
1	570	669	143
1	574	672	144
1	578	675	145
1	582	678	146
1	586	681	147
1	590	684	148
1	594	687	149
1	598	698	150
1	602	701	151
1	606	704	152
1	610	707	153
1	614	718	154
1	618	721	155
1	622	724	156
1	626	727	157
1	630	730	158
1	634	733	159
1	638	736	160
1	642	739	161
1	646	742	162
1	650	745	163
1	654	748	164
1	658	760	165
1	662	763	166
1	666	766	167
1	670	769	168
1	674	772	169
1	678	775	170
1	682	778	171
1	686	781	172
1	690	793	173
1	694	796	174
1	698	808	175
1	702	811	176
1	706	822	177
1	710	825	178
1	714	828	179
1	718	831	180
1	722	834	181
1	726	837	182
1	730	840	183
1	734	843	184
1	738	846	185
1	742	849	186
1	746	852	187
1	750	855	188
1	754	858	189
1	758	861	190
1	762	864	191
1	766	867	192
1	770	870	193
1	774	873	194
1	778	876	195
1	782	879	196
1	786	882	197
1	790	885	198
1	794	888	199
1	798	891	200
1	802	894	201
1	806	897	202
1	810	900	203
2	1	0	1
2	25	27	2
2	53	65	3
2	57	77	4
2	69	103	5
2	77	126	6
2	105	156	7
2	133	194	8
2	181	263	9
2	237	322	10
2	269	355	11
2	277	370	12
2	309	403	13
2	329	435	14
2	429	519	15
2	481	567	16
2	489	582	17
2	497	597	18
2	657	750	19
2	689	783	20
2	697	798	21
3	0	0	1
3	4	12	2
3	8	15	3
3	12	18	4
3	16	21	5
3	20	24	6
3	24	27	7
3	28	39	8
3	32	42	9
3	36	45	10
3	40	48	11
3	44	51	12
3	48	62	13
3	52	65	14
3	56	77	15
3	60	97	16
3	64	100	17
3	68	103	18
3	72	115	19
3	76	126	20
3	80	138	21
3	84	141	22
3	88	144	23
3	92	147	24
3	96	150	25
3	100	153	26
3	104	156	27
3	108	168	28
3	112	171	29
3	116	182	30
3	120	185	31
3	124	188	32
3	128	191	33
3	132	194	34
3	136	206	35
3	140	209	36
3	144	220	37
3	148	223	38
3	152	234	39
3	156	237	40
3	160	240	41
3	164	243	42
3	168	246	43
3	172	249	44
3	176	252	45
3	180	263	46
3	184	275	47
3	188	278	48
3	192	281	49
3	196	284	50
3	200	287	51
3	204	290	52
3	208	293	53
3	212	296	54
3	216	299	55
3	220	302	56
3	224	305	57
3	228	316	58
3	232	319	59
3	236	322	60
3	240	334	61
3	244	337	62
3	248	340	63
3	252	343	64
3	256	346	65
3	260	349	66
3	264	352	67
3	268	355	68
3	272	367	69
3	276	370	70
3	280	382	71
3	284	385	72
3	288	388	73
3	292	391	74
3	296	394	75
3	300	397	76
3	304	400	77
3	308	403	78
3	312	415	79
3	316	426	80
3	320	429	81
3	324	432	82
3	328	435	83
3	332	447	84
3	336	450	85
3	340	453	86
3	344	456	87
3	348	459	88
3	352	462	89
3	356	465	90
3	360	468	91
3	364	471	92
3	368	474	93
3	372	477	94
3	376	480	95
3	380	483	96
3	384	486	97
3	388	489	98
3	392	492	99
3	396	495	100
3	400	498	101
3	404	501	102
3	408	504	103
3	412	507	104
3	416	510	105
3	420	513	106
3	424	516	107
3	428	519	108
3	432	531	109
3	436	534	110
3	440	537	111
3	444	540	112
3	448	543	113
3	452	546	114
3	456	549	115
3	460	552	116
3	464	555	117
3	468	558	118
3	472	561	119
3	476	564	120
3	480	567	121
3	484	579	122
3	488	582	123
3	492	594	124
3	496	597	125
3	500	609	126
3	504	612	127
3	508	615	128
3	512	618	129
3	516	621	130
3	520	624	131
3	524	627	132
3	528	630	133
3	532	641	134
3	536	644	135
3	540	647	136
3	544	650	137
3	548	653	138
3	552	656	139
3	556	659	140
3	560	662	141
3	564	665	142
3	568	668	143
3	572	671	144
3	576	674	145
3	580	677	146
3	584	680	147
3	588	683	148
3	592	686	149
3	596	697	150
3	600	700	151
3	604	703	152
3	608	706	153
3	612	717	154
3	616	720	155
3	620	723	156
3	624	726	157
3	628	729	158
3	632	732	159
3	636	735	160
3	640	738	161
3	644	741	162
3	648	744	163
3	652	747	164
3	656	750	165
3	660	762	166
3	664	765	167
3	668	768	168
3	672	771	169
3	676	774	170
3	680	777	171
3	684	780	172
3	688	783	173
3	692	795	174
3	696	798	175
3	700	810	176
3	704	821	177
3	708	824	178
3	712	827	179
3	716	830	180
3	720	833	181
3	724	836	182
3	728	839	183
3	732	842	184
3	736	845	185
3	740	848	186
3	744	851	187
3	748	854	188
3	752	857	189
3	756	860	190
3	760	863	191
3	764	866	192
3	768	869	193
3	772	872	194
3	776	875	195
3	780	878	196
3	784	881	197
3	788	884	198
3	792	887	199
3	796	890	200
3	800	893	201
3	804	896	202
3	808	899	203
4	47	52	1
4	59	87	2
4	75	116	3
4	115	172	4
4	143	210	5
4	151	224	6
4	179	253	7
4	227	306	8
4	315	416	9
4	531	631	10
4	595	687	11
4	611	707	12
4	703	811	13
