version 2
run Experiment1-FIX-0-20171013-13:11:39-8705
attr configname Experiment1-FIX
attr datetime 20171013-13:11:39
attr experiment Ballwerfen
attr inifile omnetpp.ini
attr iterationvars ""
attr iterationvars2 $repetition=0
attr measurement ""
attr network Playground
attr processid 8705
attr repetition 0
attr replication #0
attr resultdir results
attr runnumber 0
attr seedset 0

vector 2  Playground.boy  #anzahl-wuerfe  ETV
vector 0  Playground.girl  #anzahl-wuerfe  ETV
vector 1  Playground.girl  #anzahl--verlorener-wuerfe  ETV
vector 3  Playground.boy  #anzahl--verlorener-wuerfe  ETV
0	2	1	1
0	6	13	2
0	10	25	3
0	14	28	4
0	18	31	5
0	22	34	6
0	26	45	7
0	30	48	8
0	34	59	9
0	38	62	10
0	42	73	11
0	46	85	12
0	50	88	13
0	54	91	14
0	58	94	15
0	62	97	16
0	66	100	17
0	70	103	18
0	74	106	19
0	78	109	20
0	82	112	21
0	86	124	22
0	90	127	23
0	94	130	24
0	98	133	25
0	102	144	26
0	106	147	27
0	110	150	28
0	114	153	29
0	118	156	30
0	122	159	31
0	126	171	32
0	130	174	33
0	134	177	34
0	138	180	35
0	142	183	36
0	146	186	37
0	150	189	38
0	154	192	39
0	158	195	40
0	162	198	41
0	166	209	42
0	170	212	43
0	174	215	44
0	178	218	45
0	182	229	46
0	186	232	47
0	190	235	48
0	194	238	49
0	198	241	50
0	202	244	51
0	206	247	52
0	210	250	53
0	214	253	54
0	218	256	55
0	222	259	56
0	226	262	57
0	230	265	58
0	234	268	59
0	238	280	60
0	242	283	61
0	246	286	62
0	250	289	63
0	254	292	64
0	258	304	65
0	262	307	66
0	266	310	67
0	270	313	68
0	274	316	69
0	278	319	70
0	282	322	71
0	286	325	72
0	290	328	73
0	294	331	74
0	298	334	75
0	302	337	76
0	306	340	77
0	310	343	78
0	314	355	79
0	318	358	80
0	322	361	81
0	326	373	82
0	330	376	83
0	334	379	84
0	338	382	85
0	342	385	86
0	346	388	87
0	350	391	88
0	354	394	89
0	358	406	90
0	362	409	91
0	366	412	92
0	370	415	93
0	374	418	94
0	378	421	95
0	382	424	96
0	386	427	97
0	390	430	98
0	394	433	99
0	398	436	100
0	402	439	101
0	406	442	102
0	410	445	103
0	414	448	104
0	418	451	105
0	422	454	106
0	426	457	107
0	430	460	108
0	434	472	109
0	438	483	110
0	442	486	111
0	446	489	112
0	450	492	113
0	454	495	114
0	458	507	115
0	462	510	116
0	466	513	117
0	470	516	118
0	474	519	119
0	478	530	120
0	482	533	121
0	486	536	122
0	490	547	123
0	494	550	124
0	498	553	125
0	502	556	126
0	506	559	127
0	510	562	128
0	514	565	129
0	518	568	130
0	522	571	131
0	526	574	132
0	530	577	133
0	534	580	134
0	538	583	135
0	542	586	136
0	546	589	137
0	550	592	138
0	554	595	139
0	558	598	140
0	562	601	141
0	566	604	142
0	570	607	143
0	574	610	144
0	578	613	145
0	582	625	146
0	586	628	147
0	590	631	148
0	594	634	149
0	598	637	150
0	602	640	151
0	606	643	152
0	610	646	153
0	614	649	154
0	618	652	155
0	622	655	156
0	626	667	157
0	630	678	158
0	634	681	159
0	638	684	160
0	642	687	161
0	646	699	162
0	650	702	163
0	654	705	164
0	658	708	165
0	662	711	166
0	666	714	167
0	670	717	168
0	674	720	169
0	678	723	170
0	682	726	171
0	686	729	172
0	690	732	173
0	694	735	174
0	698	738	175
0	702	741	176
0	706	744	177
0	710	747	178
0	714	759	179
0	718	762	180
0	722	765	181
0	726	768	182
0	730	771	183
0	734	774	184
0	738	777	185
0	742	780	186
0	746	783	187
0	750	786	188
0	754	789	189
0	758	800	190
0	762	803	191
0	766	806	192
0	770	809	193
0	774	812	194
0	778	815	195
0	782	818	196
0	786	821	197
0	790	832	198
0	794	835	199
0	798	838	200
0	802	841	201
0	806	852	202
0	810	855	203
0	814	858	204
0	818	861	205
0	822	864	206
0	826	867	207
0	830	870	208
0	834	873	209
0	838	876	210
0	842	879	211
0	846	882	212
0	850	885	213
0	854	897	214
1	5	3	1
1	9	15	2
1	45	75	3
1	85	114	4
1	125	161	5
1	237	270	6
1	257	294	7
1	313	345	8
1	325	363	9
1	357	396	10
1	433	462	11
1	457	497	12
1	581	615	13
1	625	657	14
1	645	689	15
1	713	749	16
1	853	887	17
1	857	899	18
2	0	0	1
2	4	3	2
2	8	15	3
2	12	27	4
2	16	30	5
2	20	33	6
2	24	44	7
2	28	47	8
2	32	58	9
2	36	61	10
2	40	72	11
2	44	75	12
2	48	87	13
2	52	90	14
2	56	93	15
2	60	96	16
2	64	99	17
2	68	102	18
2	72	105	19
2	76	108	20
2	80	111	21
2	84	114	22
2	88	126	23
2	92	129	24
2	96	132	25
2	100	143	26
2	104	146	27
2	108	149	28
2	112	152	29
2	116	155	30
2	120	158	31
2	124	161	32
2	128	173	33
2	132	176	34
2	136	179	35
2	140	182	36
2	144	185	37
2	148	188	38
2	152	191	39
2	156	194	40
2	160	197	41
2	164	208	42
2	168	211	43
2	172	214	44
2	176	217	45
2	180	228	46
2	184	231	47
2	188	234	48
2	192	237	49
2	196	240	50
2	200	243	51
2	204	246	52
2	208	249	53
2	212	252	54
2	216	255	55
2	220	258	56
2	224	261	57
2	228	264	58
2	232	267	59
2	236	270	60
2	240	282	61
2	244	285	62
2	248	288	63
2	252	291	64
2	256	294	65
2	260	306	66
2	264	309	67
2	268	312	68
2	272	315	69
2	276	318	70
2	280	321	71
2	284	324	72
2	288	327	73
2	292	330	74
2	296	333	75
2	300	336	76
2	304	339	77
2	308	342	78
2	312	345	79
2	316	357	80
2	320	360	81
2	324	363	82
2	328	375	83
2	332	378	84
2	336	381	85
2	340	384	86
2	344	387	87
2	348	390	88
2	352	393	89
2	356	396	90
2	360	408	91
2	364	411	92
2	368	414	93
2	372	417	94
2	376	420	95
2	380	423	96
2	384	426	97
2	388	429	98
2	392	432	99
2	396	435	100
2	400	438	101
2	404	441	102
2	408	444	103
2	412	447	104
2	416	450	105
2	420	453	106
2	424	456	107
2	428	459	108
2	432	462	109
2	436	482	110
2	440	485	111
2	444	488	112
2	448	491	113
2	452	494	114
2	456	497	115
2	460	509	116
2	464	512	117
2	468	515	118
2	472	518	119
2	476	529	120
2	480	532	121
2	484	535	122
2	488	546	123
2	492	549	124
2	496	552	125
2	500	555	126
2	504	558	127
2	508	561	128
2	512	564	129
2	516	567	130
2	520	570	131
2	524	573	132
2	528	576	133
2	532	579	134
2	536	582	135
2	540	585	136
2	544	588	137
2	548	591	138
2	552	594	139
2	556	597	140
2	560	600	141
2	564	603	142
2	568	606	143
2	572	609	144
2	576	612	145
2	580	615	146
2	584	627	147
2	588	630	148
2	592	633	149
2	596	636	150
2	600	639	151
2	604	642	152
2	608	645	153
2	612	648	154
2	616	651	155
2	620	654	156
2	624	657	157
2	628	677	158
2	632	680	159
2	636	683	160
2	640	686	161
2	644	689	162
2	648	701	163
2	652	704	164
2	656	707	165
2	660	710	166
2	664	713	167
2	668	716	168
2	672	719	169
2	676	722	170
2	680	725	171
2	684	728	172
2	688	731	173
2	692	734	174
2	696	737	175
2	700	740	176
2	704	743	177
2	708	746	178
2	712	749	179
2	716	761	180
2	720	764	181
2	724	767	182
2	728	770	183
2	732	773	184
2	736	776	185
2	740	779	186
2	744	782	187
2	748	785	188
2	752	788	189
2	756	799	190
2	760	802	191
2	764	805	192
2	768	808	193
2	772	811	194
2	776	814	195
2	780	817	196
2	784	820	197
2	788	831	198
2	792	834	199
2	796	837	200
2	800	840	201
2	804	851	202
2	808	854	203
2	812	857	204
2	816	860	205
2	820	863	206
2	824	866	207
2	828	869	208
2	832	872	209
2	836	875	210
2	840	878	211
2	844	881	212
2	848	884	213
2	852	887	214
2	856	899	215
3	23	34	1
3	31	48	2
3	39	62	3
3	99	133	4
3	163	198	5
3	179	218	6
3	435	472	7
3	475	519	8
3	487	536	9
3	627	667	10
3	755	789	11
3	787	821	12
3	803	841	13
