version 2
run Experiment1-FIX-0-20171024-20:50:53-11215
attr configname Experiment1-FIX
attr datetime 20171024-20:50:53
attr experiment Ballwerfen
attr inifile omnetpp.ini
attr iterationvars ""
attr iterationvarsf ""
attr measurement ""
attr network Playground
attr processid 11215
attr repetition 0
attr replication #0
attr resultdir results
attr runnumber 0
attr seedset 0

vector 9  Playground.spiderman  #v_cnt_wuerfe_gefangen  ETV
vector 0  Playground  #anzahl-gefangen-gesamt  ETV
vector 1  Playground.girl  #v_cnt_wuerfe_gefangen  ETV
vector 5  Playground.boy  #v_cnt_wuerfe_gefangen  ETV
vector 7  Playground.boy2  #v_cnt_wuerfe_gefangen  ETV
vector 3  Playground.girl2  #v_cnt_wuerfe_gefangen  ETV
0	1	0	1
0	2	0	2
0	5	4	3
0	8	5	4
0	10	9	5
0	13	11	6
0	14	11	7
0	17	15	8
0	18	15	9
0	20	16	10
0	22	17	11
0	24	20	12
0	26	21	13
0	29	22	14
0	30	22	15
0	33	26	16
0	34	26	17
0	36	27	18
0	38	28	19
0	40	31	20
0	42	32	21
0	45	33	22
0	46	33	23
0	49	37	24
0	50	37	25
0	52	38	26
0	54	39	27
0	56	42	28
0	58	43	29
0	61	44	30
0	62	44	31
0	65	48	32
0	66	48	33
0	68	49	34
0	70	50	35
0	72	53	36
0	74	54	37
0	77	55	38
0	78	55	39
0	81	59	40
0	82	59	41
0	84	60	42
0	86	61	43
0	88	64	44
0	90	65	45
0	93	66	46
0	94	66	47
0	97	70	48
0	98	70	49
0	100	71	50
0	102	72	51
0	104	75	52
0	106	76	53
0	109	77	54
0	110	77	55
0	113	81	56
0	114	81	57
0	116	82	58
0	118	83	59
0	120	86	60
0	122	87	61
0	125	88	62
0	126	88	63
0	129	92	64
0	130	92	65
0	132	93	66
0	134	94	67
0	136	97	68
0	138	98	69
0	141	99	70
0	142	99	71
0	145	103	72
0	146	103	73
0	148	104	74
0	150	105	75
0	152	108	76
0	154	109	77
0	157	110	78
0	158	110	79
0	161	114	80
0	162	114	81
0	164	115	82
0	166	116	83
0	168	119	84
0	170	120	85
0	173	121	86
0	174	121	87
0	177	125	88
0	178	125	89
0	180	126	90
0	182	127	91
0	184	130	92
0	186	131	93
0	189	132	94
0	190	132	95
0	193	136	96
0	194	136	97
0	196	137	98
0	198	138	99
0	200	141	100
0	202	142	101
0	205	143	102
0	206	143	103
0	209	147	104
0	210	147	105
0	212	148	106
0	214	149	107
0	216	152	108
0	218	153	109
0	221	154	110
0	222	154	111
0	225	158	112
0	226	158	113
0	228	159	114
0	230	160	115
0	232	163	116
0	234	164	117
0	237	165	118
0	238	165	119
0	241	169	120
0	242	169	121
0	244	170	122
0	246	171	123
0	248	174	124
0	250	175	125
0	253	176	126
0	254	176	127
0	257	180	128
0	258	180	129
0	260	181	130
0	262	182	131
0	264	185	132
0	266	186	133
0	269	187	134
0	270	187	135
0	273	191	136
0	274	191	137
0	276	192	138
0	278	193	139
0	280	196	140
0	282	197	141
0	285	198	142
0	286	198	143
0	289	202	144
0	290	202	145
0	292	203	146
0	294	204	147
0	296	207	148
0	298	208	149
0	301	209	150
0	302	209	151
0	305	213	152
0	306	213	153
0	308	214	154
0	310	215	155
0	312	218	156
0	314	219	157
0	317	220	158
0	318	220	159
0	321	224	160
0	322	224	161
0	324	225	162
0	326	226	163
0	328	229	164
0	330	230	165
0	333	231	166
0	334	231	167
0	337	235	168
0	338	235	169
0	340	236	170
0	342	237	171
0	344	240	172
0	346	241	173
0	349	242	174
0	350	242	175
0	353	246	176
0	354	246	177
0	356	247	178
0	358	248	179
0	360	251	180
0	362	252	181
0	365	253	182
0	366	253	183
0	369	257	184
0	370	257	185
0	372	258	186
0	374	259	187
0	376	262	188
0	378	263	189
0	381	264	190
0	382	264	191
0	385	268	192
0	386	268	193
0	388	269	194
0	390	270	195
0	392	273	196
0	394	274	197
0	397	275	198
0	398	275	199
0	401	279	200
0	402	279	201
0	404	280	202
0	406	281	203
0	408	284	204
0	410	285	205
0	413	286	206
0	414	286	207
0	417	290	208
0	418	290	209
0	420	291	210
0	422	292	211
0	424	295	212
0	426	296	213
0	429	297	214
0	430	297	215
0	433	301	216
0	434	301	217
0	436	302	218
0	438	303	219
0	440	306	220
0	442	307	221
0	445	308	222
0	446	308	223
0	449	312	224
0	450	312	225
0	452	313	226
0	454	314	227
0	456	317	228
0	458	318	229
0	461	319	230
0	462	319	231
0	465	323	232
0	466	323	233
0	468	324	234
0	470	325	235
0	472	328	236
0	474	329	237
0	477	330	238
0	478	330	239
0	481	334	240
0	482	334	241
0	484	335	242
0	486	336	243
0	488	339	244
0	490	340	245
0	493	341	246
0	494	341	247
0	497	345	248
0	498	345	249
0	500	346	250
0	502	347	251
0	504	350	252
0	506	351	253
0	509	352	254
0	510	352	255
0	513	356	256
0	514	356	257
0	516	357	258
0	518	358	259
0	520	361	260
0	522	362	261
0	525	363	262
0	526	363	263
0	529	367	264
0	530	367	265
0	532	368	266
0	534	369	267
0	536	372	268
0	538	373	269
0	541	374	270
0	542	374	271
0	545	378	272
0	546	378	273
0	548	379	274
0	550	380	275
0	552	383	276
0	554	384	277
0	557	385	278
0	558	385	279
0	561	389	280
0	562	389	281
0	564	390	282
0	566	391	283
0	568	394	284
0	570	395	285
0	573	396	286
0	574	396	287
0	577	400	288
0	578	400	289
0	580	401	290
0	582	402	291
0	584	405	292
0	586	406	293
0	589	407	294
0	590	407	295
0	593	411	296
0	594	411	297
0	596	412	298
0	598	413	299
0	600	416	300
0	602	417	301
0	605	418	302
0	606	418	303
0	609	422	304
0	610	422	305
0	612	423	306
0	614	424	307
0	616	427	308
0	618	428	309
0	621	429	310
0	622	429	311
0	625	433	312
0	626	433	313
0	628	434	314
0	630	435	315
0	632	438	316
0	634	439	317
0	637	440	318
0	638	440	319
0	641	444	320
0	642	444	321
0	644	445	322
0	646	446	323
0	648	449	324
0	650	450	325
0	653	451	326
0	654	451	327
0	657	455	328
0	658	455	329
0	660	456	330
0	662	457	331
0	664	460	332
0	666	461	333
0	669	462	334
0	670	462	335
0	673	466	336
0	674	466	337
0	676	467	338
0	678	468	339
0	680	471	340
0	682	472	341
0	685	473	342
0	686	473	343
0	689	477	344
0	690	477	345
0	692	478	346
0	694	479	347
0	696	482	348
0	698	483	349
0	701	484	350
0	702	484	351
0	705	488	352
0	706	488	353
0	708	489	354
0	710	490	355
0	712	493	356
0	714	494	357
0	717	495	358
0	718	495	359
0	721	499	360
0	722	499	361
0	724	500	362
0	726	501	363
0	728	504	364
0	730	505	365
0	733	506	366
0	734	506	367
0	737	510	368
0	738	510	369
0	740	511	370
0	742	512	371
0	744	515	372
0	746	516	373
0	749	517	374
0	750	517	375
0	753	521	376
0	754	521	377
0	756	522	378
0	758	523	379
0	760	526	380
0	762	527	381
0	765	528	382
0	766	528	383
0	769	532	384
0	770	532	385
0	772	533	386
0	774	534	387
0	776	537	388
0	778	538	389
0	781	539	390
0	782	539	391
0	785	543	392
0	786	543	393
0	788	544	394
0	790	545	395
0	792	548	396
0	794	549	397
0	797	550	398
0	798	550	399
0	801	554	400
0	802	554	401
0	804	555	402
0	806	556	403
0	808	559	404
0	810	560	405
0	813	561	406
0	814	561	407
0	817	565	408
0	818	565	409
0	820	566	410
0	822	567	411
0	824	570	412
0	826	571	413
0	829	572	414
0	830	572	415
0	833	576	416
0	834	576	417
0	836	577	418
0	838	578	419
0	840	581	420
0	842	582	421
0	845	583	422
0	846	583	423
0	849	587	424
0	850	587	425
0	852	588	426
0	854	589	427
0	856	592	428
0	858	593	429
0	861	594	430
0	862	594	431
0	865	598	432
0	866	598	433
0	868	599	434
0	870	600	435
1	5	4	1
1	6	4	1
1	18	15	2
1	74	54	3
1	81	59	4
1	113	81	5
1	129	92	6
1	138	98	7
1	154	109	8
1	161	114	9
1	193	136	10
1	202	142	11
1	209	147	12
1	218	153	13
1	225	158	14
1	234	164	15
1	250	175	16
1	266	186	17
1	282	197	18
1	289	202	19
1	298	208	20
1	362	252	21
1	369	257	22
1	385	268	23
1	394	274	24
1	410	285	25
1	417	290	26
1	426	296	27
1	465	323	28
1	474	329	29
1	481	334	30
1	490	340	31
1	497	345	32
1	506	351	33
1	513	356	34
1	529	367	35
1	538	373	36
1	545	378	37
1	570	395	38
1	593	411	39
1	609	422	40
1	625	433	41
1	641	444	42
1	650	450	43
1	657	455	44
1	666	461	45
1	689	477	46
1	698	483	47
1	705	488	48
1	714	494	49
1	721	499	50
1	753	521	51
1	778	538	52
1	833	576	53
1	849	587	54
3	26	21	1
3	33	26	2
3	42	32	3
3	49	37	4
3	58	43	5
3	65	48	6
3	90	65	7
3	97	70	8
3	106	76	9
3	122	87	10
3	145	103	11
3	170	120	12
3	177	125	13
3	186	131	14
3	241	169	15
3	257	180	16
3	273	191	17
3	305	213	18
3	314	219	19
3	321	224	20
3	330	230	21
3	337	235	22
3	346	241	23
3	353	246	24
3	378	263	25
3	401	279	26
3	433	301	27
3	442	307	28
3	449	312	29
3	458	318	30
3	522	362	31
3	554	384	32
3	561	389	33
3	577	400	34
3	586	406	35
3	602	417	36
3	618	428	37
3	634	439	38
3	673	466	39
3	682	472	40
3	730	505	41
3	737	510	42
3	746	516	43
3	762	527	44
3	769	532	45
3	785	543	46
3	794	549	47
3	801	554	48
3	810	560	49
3	817	565	50
3	826	571	51
3	842	582	52
3	858	593	53
3	865	598	54
5	10	9	1
5	24	20	2
5	40	31	3
5	50	37	4
5	56	42	5
5	66	48	6
5	72	53	7
5	104	75	8
5	130	92	9
5	178	125	10
5	194	136	11
5	210	147	12
5	216	152	13
5	258	180	14
5	264	185	15
5	274	191	16
5	306	213	17
5	322	224	18
5	328	229	19
5	360	251	20
5	392	273	21
5	402	279	22
5	408	284	23
5	434	301	24
5	466	323	25
5	482	334	26
5	488	339	27
5	514	356	28
5	536	372	29
5	546	378	30
5	578	400	31
5	584	405	32
5	594	411	33
5	600	416	34
5	610	422	35
5	616	427	36
5	642	444	37
5	648	449	38
5	664	460	39
5	674	466	40
5	680	471	41
5	690	477	42
5	696	482	43
5	706	488	44
5	722	499	45
5	738	510	46
5	760	526	47
5	792	548	48
5	818	565	49
5	834	576	50
7	17	15	1
7	34	26	2
7	82	59	3
7	88	64	4
7	98	70	5
7	114	81	6
7	120	86	7
7	136	97	8
7	146	103	9
7	152	108	10
7	162	114	11
7	168	119	12
7	184	130	13
7	200	141	14
7	226	158	15
7	232	163	16
7	242	169	17
7	248	174	18
7	280	196	19
7	290	202	20
7	296	207	21
7	312	218	22
7	338	235	23
7	344	240	24
7	354	246	25
7	370	257	26
7	376	262	27
7	386	268	28
7	418	290	29
7	424	295	30
7	440	306	31
7	450	312	32
7	456	317	33
7	472	328	34
7	498	345	35
7	504	350	36
7	520	361	37
7	530	367	38
7	552	383	39
7	562	389	40
7	568	394	41
7	626	433	42
7	632	438	43
7	658	455	44
7	712	493	45
7	728	504	46
7	744	515	47
7	754	521	48
7	770	532	49
7	776	537	50
7	786	543	51
7	802	554	52
7	808	559	53
7	824	570	54
7	840	581	55
7	850	587	56
7	856	592	57
7	866	598	58
9	1	0	1
9	2	0	2
9	8	5	3
9	13	11	4
9	14	11	5
9	20	16	6
9	22	17	7
9	29	22	8
9	30	22	9
9	36	27	10
9	38	28	11
9	45	33	12
9	46	33	13
9	52	38	14
9	54	39	15
9	61	44	16
9	62	44	17
9	68	49	18
9	70	50	19
9	77	55	20
9	78	55	21
9	84	60	22
9	86	61	23
9	93	66	24
9	94	66	25
9	100	71	26
9	102	72	27
9	109	77	28
9	110	77	29
9	116	82	30
9	118	83	31
9	125	88	32
9	126	88	33
9	132	93	34
9	134	94	35
9	141	99	36
9	142	99	37
9	148	104	38
9	150	105	39
9	157	110	40
9	158	110	41
9	164	115	42
9	166	116	43
9	173	121	44
9	174	121	45
9	180	126	46
9	182	127	47
9	189	132	48
9	190	132	49
9	196	137	50
9	198	138	51
9	205	143	52
9	206	143	53
9	212	148	54
9	214	149	55
9	221	154	56
9	222	154	57
9	228	159	58
9	230	160	59
9	237	165	60
9	238	165	61
9	244	170	62
9	246	171	63
9	253	176	64
9	254	176	65
9	260	181	66
9	262	182	67
9	269	187	68
9	270	187	69
9	276	192	70
9	278	193	71
9	285	198	72
9	286	198	73
9	292	203	74
9	294	204	75
9	301	209	76
9	302	209	77
9	308	214	78
9	310	215	79
9	317	220	80
9	318	220	81
9	324	225	82
9	326	226	83
9	333	231	84
9	334	231	85
9	340	236	86
9	342	237	87
9	349	242	88
9	350	242	89
9	356	247	90
9	358	248	91
9	365	253	92
9	366	253	93
9	372	258	94
9	374	259	95
9	381	264	96
9	382	264	97
9	388	269	98
9	390	270	99
9	397	275	100
9	398	275	101
9	404	280	102
9	406	281	103
9	413	286	104
9	414	286	105
9	420	291	106
9	422	292	107
9	429	297	108
9	430	297	109
9	436	302	110
9	438	303	111
9	445	308	112
9	446	308	113
9	452	313	114
9	454	314	115
9	461	319	116
9	462	319	117
9	468	324	118
9	470	325	119
9	477	330	120
9	478	330	121
9	484	335	122
9	486	336	123
9	493	341	124
9	494	341	125
9	500	346	126
9	502	347	127
9	509	352	128
9	510	352	129
9	516	357	130
9	518	358	131
9	525	363	132
9	526	363	133
9	532	368	134
9	534	369	135
9	541	374	136
9	542	374	137
9	548	379	138
9	550	380	139
9	557	385	140
9	558	385	141
9	564	390	142
9	566	391	143
9	573	396	144
9	574	396	145
9	580	401	146
9	582	402	147
9	589	407	148
9	590	407	149
9	596	412	150
9	598	413	151
9	605	418	152
9	606	418	153
9	612	423	154
9	614	424	155
9	621	429	156
9	622	429	157
9	628	434	158
9	630	435	159
9	637	440	160
9	638	440	161
9	644	445	162
9	646	446	163
9	653	451	164
9	654	451	165
9	660	456	166
9	662	457	167
9	669	462	168
9	670	462	169
9	676	467	170
9	678	468	171
9	685	473	172
9	686	473	173
9	692	478	174
9	694	479	175
9	701	484	176
9	702	484	177
9	708	489	178
9	710	490	179
9	717	495	180
9	718	495	181
9	724	500	182
9	726	501	183
9	733	506	184
9	734	506	185
9	740	511	186
9	742	512	187
9	749	517	188
9	750	517	189
9	756	522	190
9	758	523	191
9	765	528	192
9	766	528	193
9	772	533	194
9	774	534	195
9	781	539	196
9	782	539	197
9	788	544	198
9	790	545	199
9	797	550	200
9	798	550	201
9	804	555	202
9	806	556	203
9	813	561	204
9	814	561	205
9	820	566	206
9	822	567	207
9	829	572	208
9	830	572	209
9	836	577	210
9	838	578	211
9	845	583	212
9	846	583	213
9	852	588	214
9	854	589	215
9	861	594	216
9	862	594	217
9	868	599	218
9	870	600	219
