version 2
run Experiment1-FIX-0-20171013-13:52:41-10386
attr configname Experiment1-FIX
attr datetime 20171013-13:52:41
attr experiment Ballwerfen
attr inifile omnetpp.ini
attr iterationvars ""
attr iterationvars2 $repetition=0
attr measurement ""
attr network Playground
attr processid 10386
attr repetition 0
attr replication #0
attr resultdir results
attr runnumber 0
attr seedset 0

vector 3  Playground.boy  #anzahl-wuerfe  ETV
vector 1  Playground.girl  #anzahl-wuerfe  ETV
vector 0  Playground  #anzahl-wuerfe-gesamt  ETV
vector 2  Playground.girl  #anzahl-verlorener-wuerfe  ETV
vector 4  Playground.boy  #anzahl-verlorener-wuerfe  ETV
0	2	1	1
0	4	3	2
0	6	13	3
0	8	15	4
0	10	25	5
0	12	27	6
0	14	28	7
0	16	30	8
0	18	31	9
0	20	33	10
0	22	34	11
0	24	44	12
0	26	45	13
0	28	47	14
0	30	48	15
0	32	58	16
0	34	59	17
0	36	61	18
0	38	62	19
0	40	72	20
0	42	73	21
0	44	75	22
0	46	85	23
0	48	87	24
0	50	88	25
0	52	90	26
0	54	91	27
0	56	93	28
0	58	94	29
0	60	96	30
0	62	97	31
0	64	99	32
0	66	100	33
0	68	102	34
0	70	103	35
0	72	105	36
0	74	106	37
0	76	108	38
0	78	109	39
0	80	111	40
0	82	112	41
0	84	114	42
0	86	124	43
0	88	126	44
0	90	127	45
0	92	129	46
0	94	130	47
0	96	132	48
0	98	133	49
0	100	143	50
0	102	144	51
0	104	146	52
0	106	147	53
0	108	149	54
0	110	150	55
0	112	152	56
0	114	153	57
0	116	155	58
0	118	156	59
0	120	158	60
0	122	159	61
0	124	161	62
0	126	171	63
0	128	173	64
0	130	174	65
0	132	176	66
0	134	177	67
0	136	179	68
0	138	180	69
0	140	182	70
0	142	183	71
0	144	185	72
0	146	186	73
0	148	188	74
0	150	189	75
0	152	191	76
0	154	192	77
0	156	194	78
0	158	195	79
0	160	197	80
0	162	198	81
0	164	208	82
0	166	209	83
0	168	211	84
0	170	212	85
0	172	214	86
0	174	215	87
0	176	217	88
0	178	218	89
0	180	228	90
0	182	229	91
0	184	231	92
0	186	232	93
0	188	234	94
0	190	235	95
0	192	237	96
0	194	238	97
0	196	240	98
0	198	241	99
0	200	243	100
0	202	244	101
0	204	246	102
0	206	247	103
0	208	249	104
0	210	250	105
0	212	252	106
0	214	253	107
0	216	255	108
0	218	256	109
0	220	258	110
0	222	259	111
0	224	261	112
0	226	262	113
0	228	264	114
0	230	265	115
0	232	267	116
0	234	268	117
0	236	270	118
0	238	280	119
0	240	282	120
0	242	283	121
0	244	285	122
0	246	286	123
0	248	288	124
0	250	289	125
0	252	291	126
0	254	292	127
0	256	294	128
0	258	304	129
0	260	306	130
0	262	307	131
0	264	309	132
0	266	310	133
0	268	312	134
0	270	313	135
0	272	315	136
0	274	316	137
0	276	318	138
0	278	319	139
0	280	321	140
0	282	322	141
0	284	324	142
0	286	325	143
0	288	327	144
0	290	328	145
0	292	330	146
0	294	331	147
0	296	333	148
0	298	334	149
0	300	336	150
0	302	337	151
0	304	339	152
0	306	340	153
0	308	342	154
0	310	343	155
0	312	345	156
0	314	355	157
0	316	357	158
0	318	358	159
0	320	360	160
0	322	361	161
0	324	363	162
0	326	373	163
0	328	375	164
0	330	376	165
0	332	378	166
0	334	379	167
0	336	381	168
0	338	382	169
0	340	384	170
0	342	385	171
0	344	387	172
0	346	388	173
0	348	390	174
0	350	391	175
0	352	393	176
0	354	394	177
0	356	396	178
0	358	406	179
0	360	408	180
0	362	409	181
0	364	411	182
0	366	412	183
0	368	414	184
0	370	415	185
0	372	417	186
0	374	418	187
0	376	420	188
0	378	421	189
0	380	423	190
0	382	424	191
0	384	426	192
0	386	427	193
0	388	429	194
0	390	430	195
0	392	432	196
0	394	433	197
0	396	435	198
0	398	436	199
0	400	438	200
0	402	439	201
0	404	441	202
0	406	442	203
0	408	444	204
0	410	445	205
0	412	447	206
0	414	448	207
0	416	450	208
0	418	451	209
0	420	453	210
0	422	454	211
0	424	456	212
0	426	457	213
0	428	459	214
0	430	460	215
0	432	462	216
0	434	472	217
0	436	482	218
0	438	483	219
0	440	485	220
0	442	486	221
0	444	488	222
0	446	489	223
0	448	491	224
0	450	492	225
0	452	494	226
0	454	495	227
0	456	497	228
0	458	507	229
0	460	509	230
0	462	510	231
0	464	512	232
0	466	513	233
0	468	515	234
0	470	516	235
0	472	518	236
0	474	519	237
0	476	529	238
0	478	530	239
0	480	532	240
0	482	533	241
0	484	535	242
0	486	536	243
0	488	546	244
0	490	547	245
0	492	549	246
0	494	550	247
0	496	552	248
0	498	553	249
0	500	555	250
0	502	556	251
0	504	558	252
0	506	559	253
0	508	561	254
0	510	562	255
0	512	564	256
0	514	565	257
0	516	567	258
0	518	568	259
0	520	570	260
0	522	571	261
0	524	573	262
0	526	574	263
0	528	576	264
0	530	577	265
0	532	579	266
0	534	580	267
0	536	582	268
0	538	583	269
0	540	585	270
0	542	586	271
0	544	588	272
0	546	589	273
0	548	591	274
0	550	592	275
0	552	594	276
0	554	595	277
0	556	597	278
0	558	598	279
0	560	600	280
0	562	601	281
0	564	603	282
0	566	604	283
0	568	606	284
0	570	607	285
0	572	609	286
0	574	610	287
0	576	612	288
0	578	613	289
0	580	615	290
0	582	625	291
0	584	627	292
0	586	628	293
0	588	630	294
0	590	631	295
0	592	633	296
0	594	634	297
0	596	636	298
0	598	637	299
0	600	639	300
0	602	640	301
0	604	642	302
0	606	643	303
0	608	645	304
0	610	646	305
0	612	648	306
0	614	649	307
0	616	651	308
0	618	652	309
0	620	654	310
0	622	655	311
0	624	657	312
0	626	667	313
0	628	677	314
0	630	678	315
0	632	680	316
0	634	681	317
0	636	683	318
0	638	684	319
0	640	686	320
0	642	687	321
0	644	689	322
0	646	699	323
0	648	701	324
0	650	702	325
0	652	704	326
0	654	705	327
0	656	707	328
0	658	708	329
0	660	710	330
0	662	711	331
0	664	713	332
0	666	714	333
0	668	716	334
0	670	717	335
0	672	719	336
0	674	720	337
0	676	722	338
0	678	723	339
0	680	725	340
0	682	726	341
0	684	728	342
0	686	729	343
0	688	731	344
0	690	732	345
0	692	734	346
0	694	735	347
0	696	737	348
0	698	738	349
0	700	740	350
0	702	741	351
0	704	743	352
0	706	744	353
0	708	746	354
0	710	747	355
0	712	749	356
0	714	759	357
0	716	761	358
0	718	762	359
0	720	764	360
0	722	765	361
0	724	767	362
0	726	768	363
0	728	770	364
0	730	771	365
0	732	773	366
0	734	774	367
0	736	776	368
0	738	777	369
0	740	779	370
0	742	780	371
0	744	782	372
0	746	783	373
0	748	785	374
0	750	786	375
0	752	788	376
0	754	789	377
0	756	799	378
0	758	800	379
0	760	802	380
0	762	803	381
0	764	805	382
0	766	806	383
0	768	808	384
0	770	809	385
0	772	811	386
0	774	812	387
0	776	814	388
0	778	815	389
0	780	817	390
0	782	818	391
0	784	820	392
0	786	821	393
0	788	831	394
0	790	832	395
0	792	834	396
0	794	835	397
0	796	837	398
0	798	838	399
0	800	840	400
0	802	841	401
0	804	851	402
0	806	852	403
0	808	854	404
0	810	855	405
0	812	857	406
0	814	858	407
0	816	860	408
0	818	861	409
0	820	863	410
0	822	864	411
0	824	866	412
0	826	867	413
0	828	869	414
0	830	870	415
0	832	872	416
0	834	873	417
0	836	875	418
0	838	876	419
0	840	878	420
0	842	879	421
0	844	881	422
0	846	882	423
0	848	884	424
0	850	885	425
0	852	887	426
0	854	897	427
0	856	899	428
1	2	1	1
1	6	13	2
1	10	25	3
1	14	28	4
1	18	31	5
1	22	34	6
1	26	45	7
1	30	48	8
1	34	59	9
1	38	62	10
1	42	73	11
1	46	85	12
1	50	88	13
1	54	91	14
1	58	94	15
1	62	97	16
1	66	100	17
1	70	103	18
1	74	106	19
1	78	109	20
1	82	112	21
1	86	124	22
1	90	127	23
1	94	130	24
1	98	133	25
1	102	144	26
1	106	147	27
1	110	150	28
1	114	153	29
1	118	156	30
1	122	159	31
1	126	171	32
1	130	174	33
1	134	177	34
1	138	180	35
1	142	183	36
1	146	186	37
1	150	189	38
1	154	192	39
1	158	195	40
1	162	198	41
1	166	209	42
1	170	212	43
1	174	215	44
1	178	218	45
1	182	229	46
1	186	232	47
1	190	235	48
1	194	238	49
1	198	241	50
1	202	244	51
1	206	247	52
1	210	250	53
1	214	253	54
1	218	256	55
1	222	259	56
1	226	262	57
1	230	265	58
1	234	268	59
1	238	280	60
1	242	283	61
1	246	286	62
1	250	289	63
1	254	292	64
1	258	304	65
1	262	307	66
1	266	310	67
1	270	313	68
1	274	316	69
1	278	319	70
1	282	322	71
1	286	325	72
1	290	328	73
1	294	331	74
1	298	334	75
1	302	337	76
1	306	340	77
1	310	343	78
1	314	355	79
1	318	358	80
1	322	361	81
1	326	373	82
1	330	376	83
1	334	379	84
1	338	382	85
1	342	385	86
1	346	388	87
1	350	391	88
1	354	394	89
1	358	406	90
1	362	409	91
1	366	412	92
1	370	415	93
1	374	418	94
1	378	421	95
1	382	424	96
1	386	427	97
1	390	430	98
1	394	433	99
1	398	436	100
1	402	439	101
1	406	442	102
1	410	445	103
1	414	448	104
1	418	451	105
1	422	454	106
1	426	457	107
1	430	460	108
1	434	472	109
1	438	483	110
1	442	486	111
1	446	489	112
1	450	492	113
1	454	495	114
1	458	507	115
1	462	510	116
1	466	513	117
1	470	516	118
1	474	519	119
1	478	530	120
1	482	533	121
1	486	536	122
1	490	547	123
1	494	550	124
1	498	553	125
1	502	556	126
1	506	559	127
1	510	562	128
1	514	565	129
1	518	568	130
1	522	571	131
1	526	574	132
1	530	577	133
1	534	580	134
1	538	583	135
1	542	586	136
1	546	589	137
1	550	592	138
1	554	595	139
1	558	598	140
1	562	601	141
1	566	604	142
1	570	607	143
1	574	610	144
1	578	613	145
1	582	625	146
1	586	628	147
1	590	631	148
1	594	634	149
1	598	637	150
1	602	640	151
1	606	643	152
1	610	646	153
1	614	649	154
1	618	652	155
1	622	655	156
1	626	667	157
1	630	678	158
1	634	681	159
1	638	684	160
1	642	687	161
1	646	699	162
1	650	702	163
1	654	705	164
1	658	708	165
1	662	711	166
1	666	714	167
1	670	717	168
1	674	720	169
1	678	723	170
1	682	726	171
1	686	729	172
1	690	732	173
1	694	735	174
1	698	738	175
1	702	741	176
1	706	744	177
1	710	747	178
1	714	759	179
1	718	762	180
1	722	765	181
1	726	768	182
1	730	771	183
1	734	774	184
1	738	777	185
1	742	780	186
1	746	783	187
1	750	786	188
1	754	789	189
1	758	800	190
1	762	803	191
1	766	806	192
1	770	809	193
1	774	812	194
1	778	815	195
1	782	818	196
1	786	821	197
1	790	832	198
1	794	835	199
1	798	838	200
1	802	841	201
1	806	852	202
1	810	855	203
1	814	858	204
1	818	861	205
1	822	864	206
1	826	867	207
1	830	870	208
1	834	873	209
1	838	876	210
1	842	879	211
1	846	882	212
1	850	885	213
1	854	897	214
2	5	3	1
2	9	15	2
2	45	75	3
2	85	114	4
2	125	161	5
2	237	270	6
2	257	294	7
2	313	345	8
2	325	363	9
2	357	396	10
2	433	462	11
2	457	497	12
2	581	615	13
2	625	657	14
2	645	689	15
2	713	749	16
2	853	887	17
2	857	899	18
3	0	0	1
3	4	3	2
3	8	15	3
3	12	27	4
3	16	30	5
3	20	33	6
3	24	44	7
3	28	47	8
3	32	58	9
3	36	61	10
3	40	72	11
3	44	75	12
3	48	87	13
3	52	90	14
3	56	93	15
3	60	96	16
3	64	99	17
3	68	102	18
3	72	105	19
3	76	108	20
3	80	111	21
3	84	114	22
3	88	126	23
3	92	129	24
3	96	132	25
3	100	143	26
3	104	146	27
3	108	149	28
3	112	152	29
3	116	155	30
3	120	158	31
3	124	161	32
3	128	173	33
3	132	176	34
3	136	179	35
3	140	182	36
3	144	185	37
3	148	188	38
3	152	191	39
3	156	194	40
3	160	197	41
3	164	208	42
3	168	211	43
3	172	214	44
3	176	217	45
3	180	228	46
3	184	231	47
3	188	234	48
3	192	237	49
3	196	240	50
3	200	243	51
3	204	246	52
3	208	249	53
3	212	252	54
3	216	255	55
3	220	258	56
3	224	261	57
3	228	264	58
3	232	267	59
3	236	270	60
3	240	282	61
3	244	285	62
3	248	288	63
3	252	291	64
3	256	294	65
3	260	306	66
3	264	309	67
3	268	312	68
3	272	315	69
3	276	318	70
3	280	321	71
3	284	324	72
3	288	327	73
3	292	330	74
3	296	333	75
3	300	336	76
3	304	339	77
3	308	342	78
3	312	345	79
3	316	357	80
3	320	360	81
3	324	363	82
3	328	375	83
3	332	378	84
3	336	381	85
3	340	384	86
3	344	387	87
3	348	390	88
3	352	393	89
3	356	396	90
3	360	408	91
3	364	411	92
3	368	414	93
3	372	417	94
3	376	420	95
3	380	423	96
3	384	426	97
3	388	429	98
3	392	432	99
3	396	435	100
3	400	438	101
3	404	441	102
3	408	444	103
3	412	447	104
3	416	450	105
3	420	453	106
3	424	456	107
3	428	459	108
3	432	462	109
3	436	482	110
3	440	485	111
3	444	488	112
3	448	491	113
3	452	494	114
3	456	497	115
3	460	509	116
3	464	512	117
3	468	515	118
3	472	518	119
3	476	529	120
3	480	532	121
3	484	535	122
3	488	546	123
3	492	549	124
3	496	552	125
3	500	555	126
3	504	558	127
3	508	561	128
3	512	564	129
3	516	567	130
3	520	570	131
3	524	573	132
3	528	576	133
3	532	579	134
3	536	582	135
3	540	585	136
3	544	588	137
3	548	591	138
3	552	594	139
3	556	597	140
3	560	600	141
3	564	603	142
3	568	606	143
3	572	609	144
3	576	612	145
3	580	615	146
3	584	627	147
3	588	630	148
3	592	633	149
3	596	636	150
3	600	639	151
3	604	642	152
3	608	645	153
3	612	648	154
3	616	651	155
3	620	654	156
3	624	657	157
3	628	677	158
3	632	680	159
3	636	683	160
3	640	686	161
3	644	689	162
3	648	701	163
3	652	704	164
3	656	707	165
3	660	710	166
3	664	713	167
3	668	716	168
3	672	719	169
3	676	722	170
3	680	725	171
3	684	728	172
3	688	731	173
3	692	734	174
3	696	737	175
3	700	740	176
3	704	743	177
3	708	746	178
3	712	749	179
3	716	761	180
3	720	764	181
3	724	767	182
3	728	770	183
3	732	773	184
3	736	776	185
3	740	779	186
3	744	782	187
3	748	785	188
3	752	788	189
3	756	799	190
3	760	802	191
3	764	805	192
3	768	808	193
3	772	811	194
3	776	814	195
3	780	817	196
3	784	820	197
3	788	831	198
3	792	834	199
3	796	837	200
3	800	840	201
3	804	851	202
3	808	854	203
3	812	857	204
3	816	860	205
3	820	863	206
3	824	866	207
3	828	869	208
3	832	872	209
3	836	875	210
3	840	878	211
3	844	881	212
3	848	884	213
3	852	887	214
3	856	899	215
4	23	34	1
4	31	48	2
4	39	62	3
4	99	133	4
4	163	198	5
4	179	218	6
4	435	472	7
4	475	519	8
4	487	536	9
4	627	667	10
4	755	789	11
4	787	821	12
4	803	841	13
