version 2
run Experiment1-FIX-0-20171013-14:15:32-11416
attr configname Experiment1-FIX
attr datetime 20171013-14:15:32
attr experiment Ballwerfen
attr inifile omnetpp.ini
attr iterationvars ""
attr iterationvars2 $repetition=0
attr measurement ""
attr network Playground
attr processid 11416
attr repetition 0
attr replication #0
attr resultdir results
attr runnumber 0
attr seedset 0

vector 3  Playground.boy  #anzahl-wuerfe  ETV
vector 0  Playground  #anzahl-wuerfe-gesamt  ETV
vector 2  Playground.girl  #anzahl-verlorener-wuerfe  ETV
vector 1  Playground.girl  #anzahl-wuerfe  ETV
vector 4  Playground.boy  #anzahl-verlorener-wuerfe  ETV
0	0	0	1
0	2	10	2
0	4	12	3
0	6	13	4
0	8	15	5
0	10	16	6
0	12	26	7
0	14	36	8
0	16	38	9
0	18	39	10
0	20	49	11
0	22	50	12
0	24	52	13
0	26	53	14
0	28	55	15
0	30	65	16
0	32	67	17
0	34	68	18
0	36	70	19
0	38	71	20
0	40	73	21
0	42	74	22
0	44	76	23
0	46	77	24
0	48	87	25
0	50	88	26
0	52	90	27
0	54	91	28
0	56	93	29
0	58	94	30
0	60	96	31
0	62	97	32
0	64	107	33
0	66	108	34
0	68	110	35
0	70	120	36
0	72	122	37
0	74	123	38
0	76	125	39
0	78	126	40
0	80	136	41
0	82	137	42
0	84	139	43
0	86	140	44
0	88	142	45
0	90	143	46
0	92	153	47
0	94	154	48
0	96	156	49
0	98	157	50
0	100	159	51
0	102	160	52
0	104	162	53
0	106	163	54
0	108	165	55
0	110	166	56
0	112	168	57
0	114	169	58
0	116	171	59
0	118	172	60
0	120	174	61
0	122	175	62
0	124	177	63
0	126	178	64
0	128	180	65
0	130	181	66
0	132	183	67
0	134	184	68
0	136	186	69
0	138	187	70
0	140	189	71
0	142	199	72
0	144	201	73
0	146	202	74
0	148	204	75
0	150	205	76
0	152	207	77
0	154	208	78
0	156	210	79
0	158	211	80
0	160	213	81
0	162	214	82
0	164	216	83
0	166	217	84
0	168	219	85
0	170	220	86
0	172	230	87
0	174	231	88
0	176	233	89
0	178	234	90
0	180	236	91
0	182	237	92
0	184	239	93
0	186	240	94
0	188	242	95
0	190	243	96
0	192	245	97
0	194	246	98
0	196	248	99
0	198	249	100
0	200	259	101
0	202	260	102
0	204	262	103
0	206	263	104
0	208	265	105
0	210	266	106
0	212	268	107
0	214	269	108
0	216	271	109
0	218	272	110
0	220	274	111
0	222	275	112
0	224	277	113
0	226	278	114
0	228	280	115
0	230	281	116
0	232	283	117
0	234	284	118
0	236	286	119
0	238	287	120
0	240	289	121
0	242	290	122
0	244	292	123
0	246	293	124
0	248	295	125
0	250	296	126
0	252	306	127
0	254	307	128
0	256	309	129
0	258	310	130
0	260	312	131
0	262	313	132
0	264	315	133
0	266	316	134
0	268	318	135
0	270	319	136
0	272	321	137
0	274	322	138
0	276	324	139
0	278	325	140
0	280	327	141
0	282	328	142
0	284	330	143
0	286	331	144
0	288	333	145
0	290	334	146
0	292	336	147
0	294	337	148
0	296	339	149
0	298	340	150
0	300	342	151
0	302	343	152
0	304	345	153
0	306	346	154
0	308	348	155
0	310	349	156
0	312	351	157
0	314	352	158
0	316	354	159
0	318	355	160
0	320	357	161
0	322	358	162
0	324	360	163
0	326	361	164
0	328	371	165
0	330	372	166
0	332	374	167
0	334	384	168
0	336	386	169
0	338	387	170
0	340	389	171
0	342	390	172
0	344	392	173
0	346	393	174
0	348	395	175
0	350	396	176
0	352	398	177
0	354	399	178
0	356	401	179
0	358	402	180
0	360	412	181
0	362	413	182
0	364	415	183
0	366	416	184
0	368	418	185
0	370	428	186
0	372	430	187
0	374	431	188
0	376	433	189
0	378	443	190
0	380	445	191
0	382	455	192
0	384	457	193
0	386	458	194
0	388	460	195
0	390	470	196
0	392	472	197
0	394	473	198
0	396	475	199
0	398	476	200
0	400	478	201
0	402	488	202
0	404	490	203
0	406	491	204
0	408	493	205
0	410	494	206
0	412	496	207
0	414	506	208
0	416	508	209
0	418	509	210
0	420	511	211
0	422	521	212
0	424	523	213
0	426	524	214
0	428	526	215
0	430	527	216
0	432	529	217
0	434	530	218
0	436	532	219
0	438	533	220
0	440	535	221
0	442	536	222
0	444	538	223
0	446	539	224
0	448	541	225
0	450	542	226
0	452	544	227
0	454	545	228
0	456	547	229
0	458	548	230
0	460	550	231
0	462	551	232
0	464	553	233
0	466	554	234
0	468	556	235
0	470	566	236
0	472	568	237
0	474	569	238
0	476	579	239
0	478	580	240
0	480	582	241
0	482	583	242
0	484	585	243
0	486	586	244
0	488	588	245
0	490	589	246
0	492	591	247
0	494	592	248
0	496	594	249
0	498	595	250
0	500	597	251
0	502	598	252
0	504	600	253
0	506	610	254
0	508	612	255
0	510	613	256
0	512	615	257
0	514	616	258
0	516	626	259
0	518	636	260
0	520	638	261
0	522	639	262
0	524	641	263
0	526	642	264
0	528	644	265
0	530	645	266
0	532	647	267
0	534	648	268
0	536	650	269
0	538	651	270
0	540	653	271
0	542	654	272
0	544	656	273
0	546	657	274
0	548	659	275
0	550	669	276
0	552	671	277
0	554	681	278
0	556	683	279
0	558	684	280
0	560	686	281
0	562	687	282
0	564	689	283
0	566	690	284
0	568	692	285
0	570	702	286
0	572	704	287
0	574	705	288
0	576	707	289
0	578	708	290
0	580	710	291
0	582	711	292
0	584	713	293
0	586	714	294
0	588	716	295
0	590	717	296
0	592	719	297
0	594	720	298
0	596	722	299
0	598	723	300
0	600	725	301
0	602	726	302
0	604	728	303
0	606	729	304
0	608	731	305
0	610	732	306
0	612	734	307
0	614	735	308
0	616	737	309
0	618	738	310
0	620	740	311
0	622	741	312
0	624	743	313
0	626	744	314
0	628	754	315
0	630	755	316
0	632	757	317
0	634	758	318
0	636	760	319
0	638	761	320
0	640	763	321
0	642	764	322
0	644	766	323
0	646	767	324
0	648	769	325
0	650	779	326
0	652	789	327
0	654	790	328
0	656	792	329
0	658	793	330
0	660	795	331
0	662	796	332
0	664	798	333
0	666	799	334
0	668	801	335
0	670	802	336
0	672	804	337
0	674	805	338
0	676	807	339
0	678	808	340
0	680	810	341
0	682	811	342
0	684	813	343
0	686	814	344
0	688	816	345
0	690	817	346
0	692	819	347
0	694	820	348
0	696	822	349
0	698	823	350
0	700	825	351
0	702	826	352
0	704	828	353
0	706	829	354
0	708	831	355
0	710	832	356
0	712	834	357
0	714	835	358
0	716	845	359
0	718	846	360
0	720	848	361
0	722	849	362
0	724	851	363
0	726	852	364
0	728	854	365
0	730	855	366
0	732	857	367
0	734	858	368
0	736	860	369
0	738	861	370
0	740	863	371
0	742	873	372
0	744	875	373
0	746	876	374
0	748	878	375
0	750	879	376
0	752	881	377
0	754	882	378
0	756	884	379
0	758	885	380
0	760	887	381
0	762	888	382
0	764	890	383
0	766	891	384
0	768	893	385
0	770	894	386
0	772	896	387
0	774	897	388
0	776	899	389
1	2	10	1
1	6	13	2
1	10	16	3
1	14	36	4
1	18	39	5
1	22	50	6
1	26	53	7
1	30	65	8
1	34	68	9
1	38	71	10
1	42	74	11
1	46	77	12
1	50	88	13
1	54	91	14
1	58	94	15
1	62	97	16
1	66	108	17
1	70	120	18
1	74	123	19
1	78	126	20
1	82	137	21
1	86	140	22
1	90	143	23
1	94	154	24
1	98	157	25
1	102	160	26
1	106	163	27
1	110	166	28
1	114	169	29
1	118	172	30
1	122	175	31
1	126	178	32
1	130	181	33
1	134	184	34
1	138	187	35
1	142	199	36
1	146	202	37
1	150	205	38
1	154	208	39
1	158	211	40
1	162	214	41
1	166	217	42
1	170	220	43
1	174	231	44
1	178	234	45
1	182	237	46
1	186	240	47
1	190	243	48
1	194	246	49
1	198	249	50
1	202	260	51
1	206	263	52
1	210	266	53
1	214	269	54
1	218	272	55
1	222	275	56
1	226	278	57
1	230	281	58
1	234	284	59
1	238	287	60
1	242	290	61
1	246	293	62
1	250	296	63
1	254	307	64
1	258	310	65
1	262	313	66
1	266	316	67
1	270	319	68
1	274	322	69
1	278	325	70
1	282	328	71
1	286	331	72
1	290	334	73
1	294	337	74
1	298	340	75
1	302	343	76
1	306	346	77
1	310	349	78
1	314	352	79
1	318	355	80
1	322	358	81
1	326	361	82
1	330	372	83
1	334	384	84
1	338	387	85
1	342	390	86
1	346	393	87
1	350	396	88
1	354	399	89
1	358	402	90
1	362	413	91
1	366	416	92
1	370	428	93
1	374	431	94
1	378	443	95
1	382	455	96
1	386	458	97
1	390	470	98
1	394	473	99
1	398	476	100
1	402	488	101
1	406	491	102
1	410	494	103
1	414	506	104
1	418	509	105
1	422	521	106
1	426	524	107
1	430	527	108
1	434	530	109
1	438	533	110
1	442	536	111
1	446	539	112
1	450	542	113
1	454	545	114
1	458	548	115
1	462	551	116
1	466	554	117
1	470	566	118
1	474	569	119
1	478	580	120
1	482	583	121
1	486	586	122
1	490	589	123
1	494	592	124
1	498	595	125
1	502	598	126
1	506	610	127
1	510	613	128
1	514	616	129
1	518	636	130
1	522	639	131
1	526	642	132
1	530	645	133
1	534	648	134
1	538	651	135
1	542	654	136
1	546	657	137
1	550	669	138
1	554	681	139
1	558	684	140
1	562	687	141
1	566	690	142
1	570	702	143
1	574	705	144
1	578	708	145
1	582	711	146
1	586	714	147
1	590	717	148
1	594	720	149
1	598	723	150
1	602	726	151
1	606	729	152
1	610	732	153
1	614	735	154
1	618	738	155
1	622	741	156
1	626	744	157
1	630	755	158
1	634	758	159
1	638	761	160
1	642	764	161
1	646	767	162
1	650	779	163
1	654	790	164
1	658	793	165
1	662	796	166
1	666	799	167
1	670	802	168
1	674	805	169
1	678	808	170
1	682	811	171
1	686	814	172
1	690	817	173
1	694	820	174
1	698	823	175
1	702	826	176
1	706	829	177
1	710	832	178
1	714	835	179
1	718	846	180
1	722	849	181
1	726	852	182
1	730	855	183
1	734	858	184
1	738	861	185
1	742	873	186
1	746	876	187
1	750	879	188
1	754	882	189
1	758	885	190
1	762	888	191
1	766	891	192
1	770	894	193
1	774	897	194
2	1	0	1
2	13	26	2
2	29	55	3
2	69	110	4
2	141	189	5
2	333	374	6
2	369	418	7
2	377	433	8
2	381	445	9
2	389	460	10
2	401	478	11
2	413	496	12
2	421	511	13
2	469	556	14
2	505	600	15
2	517	626	16
2	549	659	17
2	553	671	18
2	569	692	19
2	649	769	20
2	741	863	21
3	0	0	1
3	4	12	2
3	8	15	3
3	12	26	4
3	16	38	5
3	20	49	6
3	24	52	7
3	28	55	8
3	32	67	9
3	36	70	10
3	40	73	11
3	44	76	12
3	48	87	13
3	52	90	14
3	56	93	15
3	60	96	16
3	64	107	17
3	68	110	18
3	72	122	19
3	76	125	20
3	80	136	21
3	84	139	22
3	88	142	23
3	92	153	24
3	96	156	25
3	100	159	26
3	104	162	27
3	108	165	28
3	112	168	29
3	116	171	30
3	120	174	31
3	124	177	32
3	128	180	33
3	132	183	34
3	136	186	35
3	140	189	36
3	144	201	37
3	148	204	38
3	152	207	39
3	156	210	40
3	160	213	41
3	164	216	42
3	168	219	43
3	172	230	44
3	176	233	45
3	180	236	46
3	184	239	47
3	188	242	48
3	192	245	49
3	196	248	50
3	200	259	51
3	204	262	52
3	208	265	53
3	212	268	54
3	216	271	55
3	220	274	56
3	224	277	57
3	228	280	58
3	232	283	59
3	236	286	60
3	240	289	61
3	244	292	62
3	248	295	63
3	252	306	64
3	256	309	65
3	260	312	66
3	264	315	67
3	268	318	68
3	272	321	69
3	276	324	70
3	280	327	71
3	284	330	72
3	288	333	73
3	292	336	74
3	296	339	75
3	300	342	76
3	304	345	77
3	308	348	78
3	312	351	79
3	316	354	80
3	320	357	81
3	324	360	82
3	328	371	83
3	332	374	84
3	336	386	85
3	340	389	86
3	344	392	87
3	348	395	88
3	352	398	89
3	356	401	90
3	360	412	91
3	364	415	92
3	368	418	93
3	372	430	94
3	376	433	95
3	380	445	96
3	384	457	97
3	388	460	98
3	392	472	99
3	396	475	100
3	400	478	101
3	404	490	102
3	408	493	103
3	412	496	104
3	416	508	105
3	420	511	106
3	424	523	107
3	428	526	108
3	432	529	109
3	436	532	110
3	440	535	111
3	444	538	112
3	448	541	113
3	452	544	114
3	456	547	115
3	460	550	116
3	464	553	117
3	468	556	118
3	472	568	119
3	476	579	120
3	480	582	121
3	484	585	122
3	488	588	123
3	492	591	124
3	496	594	125
3	500	597	126
3	504	600	127
3	508	612	128
3	512	615	129
3	516	626	130
3	520	638	131
3	524	641	132
3	528	644	133
3	532	647	134
3	536	650	135
3	540	653	136
3	544	656	137
3	548	659	138
3	552	671	139
3	556	683	140
3	560	686	141
3	564	689	142
3	568	692	143
3	572	704	144
3	576	707	145
3	580	710	146
3	584	713	147
3	588	716	148
3	592	719	149
3	596	722	150
3	600	725	151
3	604	728	152
3	608	731	153
3	612	734	154
3	616	737	155
3	620	740	156
3	624	743	157
3	628	754	158
3	632	757	159
3	636	760	160
3	640	763	161
3	644	766	162
3	648	769	163
3	652	789	164
3	656	792	165
3	660	795	166
3	664	798	167
3	668	801	168
3	672	804	169
3	676	807	170
3	680	810	171
3	684	813	172
3	688	816	173
3	692	819	174
3	696	822	175
3	700	825	176
3	704	828	177
3	708	831	178
3	712	834	179
3	716	845	180
3	720	848	181
3	724	851	182
3	728	854	183
3	732	857	184
3	736	860	185
3	740	863	186
3	744	875	187
3	748	878	188
3	752	881	189
3	756	884	190
3	760	887	191
3	764	890	192
3	768	893	193
3	772	896	194
3	776	899	195
4	11	16	1
4	19	39	2
4	47	77	3
4	63	97	4
4	79	126	5
4	91	143	6
4	171	220	7
4	199	249	8
4	251	296	9
4	327	361	10
4	359	402	11
4	475	569	12
4	515	616	13
4	627	744	14
4	651	779	15
4	715	835	16
