version 2
run Experiment1-FIX-0-20171013-13:08:56-8506
attr configname Experiment1-FIX
attr datetime 20171013-13:08:56
attr experiment Ballwerfen
attr inifile omnetpp.ini
attr iterationvars ""
attr iterationvars2 $repetition=0
attr measurement ""
attr network Playground
attr processid 8506
attr repetition 0
attr replication #0
attr resultdir results
attr runnumber 0
attr seedset 0

vector 1  Playground.boy  #anzahl-wuerfe  ETV
vector 0  Playground.girl  #anzahl-wuerfe  ETV
vector 2  Playground.girl  ""  ETV
vector 3  Playground.boy  ""  ETV
0	2	1	1
0	6	13	2
0	10	25	3
0	14	28	4
0	18	31	5
0	22	34	6
0	26	45	7
0	30	48	8
0	34	59	9
0	38	62	10
0	42	73	11
0	46	85	12
0	50	88	13
0	54	91	14
0	58	94	15
0	62	97	16
0	66	100	17
0	70	103	18
0	74	106	19
0	78	109	20
0	82	112	21
0	86	124	22
0	90	127	23
0	94	130	24
0	98	133	25
0	102	144	26
0	106	147	27
0	110	150	28
0	114	153	29
0	118	156	30
0	122	159	31
0	126	171	32
0	130	174	33
0	134	177	34
0	138	180	35
0	142	183	36
0	146	186	37
0	150	189	38
0	154	192	39
0	158	195	40
0	162	198	41
0	166	209	42
0	170	212	43
0	174	215	44
0	178	218	45
0	182	229	46
0	186	232	47
0	190	235	48
0	194	238	49
0	198	241	50
0	202	244	51
0	206	247	52
0	210	250	53
0	214	253	54
0	218	256	55
0	222	259	56
0	226	262	57
0	230	265	58
0	234	268	59
0	238	280	60
0	242	283	61
0	246	286	62
0	250	289	63
0	254	292	64
0	258	304	65
0	262	307	66
0	266	310	67
0	270	313	68
0	274	316	69
0	278	319	70
0	282	322	71
0	286	325	72
0	290	328	73
0	294	331	74
0	298	334	75
0	302	337	76
0	306	340	77
0	310	343	78
0	314	355	79
0	318	358	80
0	322	361	81
0	326	373	82
0	330	376	83
0	334	379	84
0	338	382	85
0	342	385	86
0	346	388	87
0	350	391	88
0	354	394	89
0	358	406	90
0	362	409	91
0	366	412	92
0	370	415	93
0	374	418	94
0	378	421	95
0	382	424	96
0	386	427	97
0	390	430	98
0	394	433	99
0	398	436	100
0	402	439	101
0	406	442	102
0	410	445	103
0	414	448	104
0	418	451	105
0	422	454	106
0	426	457	107
0	430	460	108
0	434	472	109
0	438	483	110
0	442	486	111
0	446	489	112
0	450	492	113
0	454	495	114
0	458	507	115
0	462	510	116
0	466	513	117
0	470	516	118
0	474	519	119
0	478	530	120
0	482	533	121
0	486	536	122
0	490	547	123
0	494	550	124
0	498	553	125
0	502	556	126
0	506	559	127
0	510	562	128
0	514	565	129
0	518	568	130
0	522	571	131
0	526	574	132
0	530	577	133
0	534	580	134
0	538	583	135
0	542	586	136
0	546	589	137
0	550	592	138
0	554	595	139
0	558	598	140
0	562	601	141
0	566	604	142
0	570	607	143
0	574	610	144
0	578	613	145
0	582	625	146
0	586	628	147
0	590	631	148
0	594	634	149
0	598	637	150
0	602	640	151
0	606	643	152
0	610	646	153
0	614	649	154
0	618	652	155
0	622	655	156
0	626	667	157
0	630	678	158
0	634	681	159
0	638	684	160
0	642	687	161
0	646	699	162
0	650	702	163
0	654	705	164
0	658	708	165
0	662	711	166
0	666	714	167
0	670	717	168
0	674	720	169
0	678	723	170
0	682	726	171
0	686	729	172
0	690	732	173
0	694	735	174
0	698	738	175
0	702	741	176
0	706	744	177
0	710	747	178
0	714	759	179
0	718	762	180
0	722	765	181
0	726	768	182
0	730	771	183
0	734	774	184
0	738	777	185
0	742	780	186
0	746	783	187
0	750	786	188
0	754	789	189
0	758	800	190
0	762	803	191
0	766	806	192
0	770	809	193
0	774	812	194
0	778	815	195
0	782	818	196
0	786	821	197
0	790	832	198
0	794	835	199
0	798	838	200
0	802	841	201
0	806	852	202
0	810	855	203
0	814	858	204
0	818	861	205
0	822	864	206
0	826	867	207
0	830	870	208
0	834	873	209
0	838	876	210
0	842	879	211
0	846	882	212
0	850	885	213
0	854	897	214
1	0	0	1
1	4	3	2
1	8	15	3
1	12	27	4
1	16	30	5
1	20	33	6
1	24	44	7
1	28	47	8
1	32	58	9
1	36	61	10
1	40	72	11
1	44	75	12
1	48	87	13
1	52	90	14
1	56	93	15
1	60	96	16
1	64	99	17
1	68	102	18
1	72	105	19
1	76	108	20
1	80	111	21
1	84	114	22
1	88	126	23
1	92	129	24
1	96	132	25
1	100	143	26
1	104	146	27
1	108	149	28
1	112	152	29
1	116	155	30
1	120	158	31
1	124	161	32
1	128	173	33
1	132	176	34
1	136	179	35
1	140	182	36
1	144	185	37
1	148	188	38
1	152	191	39
1	156	194	40
1	160	197	41
1	164	208	42
1	168	211	43
1	172	214	44
1	176	217	45
1	180	228	46
1	184	231	47
1	188	234	48
1	192	237	49
1	196	240	50
1	200	243	51
1	204	246	52
1	208	249	53
1	212	252	54
1	216	255	55
1	220	258	56
1	224	261	57
1	228	264	58
1	232	267	59
1	236	270	60
1	240	282	61
1	244	285	62
1	248	288	63
1	252	291	64
1	256	294	65
1	260	306	66
1	264	309	67
1	268	312	68
1	272	315	69
1	276	318	70
1	280	321	71
1	284	324	72
1	288	327	73
1	292	330	74
1	296	333	75
1	300	336	76
1	304	339	77
1	308	342	78
1	312	345	79
1	316	357	80
1	320	360	81
1	324	363	82
1	328	375	83
1	332	378	84
1	336	381	85
1	340	384	86
1	344	387	87
1	348	390	88
1	352	393	89
1	356	396	90
1	360	408	91
1	364	411	92
1	368	414	93
1	372	417	94
1	376	420	95
1	380	423	96
1	384	426	97
1	388	429	98
1	392	432	99
1	396	435	100
1	400	438	101
1	404	441	102
1	408	444	103
1	412	447	104
1	416	450	105
1	420	453	106
1	424	456	107
1	428	459	108
1	432	462	109
1	436	482	110
1	440	485	111
1	444	488	112
1	448	491	113
1	452	494	114
1	456	497	115
1	460	509	116
1	464	512	117
1	468	515	118
1	472	518	119
1	476	529	120
1	480	532	121
1	484	535	122
1	488	546	123
1	492	549	124
1	496	552	125
1	500	555	126
1	504	558	127
1	508	561	128
1	512	564	129
1	516	567	130
1	520	570	131
1	524	573	132
1	528	576	133
1	532	579	134
1	536	582	135
1	540	585	136
1	544	588	137
1	548	591	138
1	552	594	139
1	556	597	140
1	560	600	141
1	564	603	142
1	568	606	143
1	572	609	144
1	576	612	145
1	580	615	146
1	584	627	147
1	588	630	148
1	592	633	149
1	596	636	150
1	600	639	151
1	604	642	152
1	608	645	153
1	612	648	154
1	616	651	155
1	620	654	156
1	624	657	157
1	628	677	158
1	632	680	159
1	636	683	160
1	640	686	161
1	644	689	162
1	648	701	163
1	652	704	164
1	656	707	165
1	660	710	166
1	664	713	167
1	668	716	168
1	672	719	169
1	676	722	170
1	680	725	171
1	684	728	172
1	688	731	173
1	692	734	174
1	696	737	175
1	700	740	176
1	704	743	177
1	708	746	178
1	712	749	179
1	716	761	180
1	720	764	181
1	724	767	182
1	728	770	183
1	732	773	184
1	736	776	185
1	740	779	186
1	744	782	187
1	748	785	188
1	752	788	189
1	756	799	190
1	760	802	191
1	764	805	192
1	768	808	193
1	772	811	194
1	776	814	195
1	780	817	196
1	784	820	197
1	788	831	198
1	792	834	199
1	796	837	200
1	800	840	201
1	804	851	202
1	808	854	203
1	812	857	204
1	816	860	205
1	820	863	206
1	824	866	207
1	828	869	208
1	832	872	209
1	836	875	210
1	840	878	211
1	844	881	212
1	848	884	213
1	852	887	214
1	856	899	215
2	5	3	1
2	9	15	2
2	45	75	3
2	85	114	4
2	125	161	5
2	237	270	6
2	257	294	7
2	313	345	8
2	325	363	9
2	357	396	10
2	433	462	11
2	457	497	12
2	581	615	13
2	625	657	14
2	645	689	15
2	713	749	16
2	853	887	17
2	857	899	18
3	23	34	1
3	31	48	2
3	39	62	3
3	99	133	4
3	163	198	5
3	179	218	6
3	435	472	7
3	475	519	8
3	487	536	9
3	627	667	10
3	755	789	11
3	787	821	12
3	803	841	13
