version 2
run Experiment1-0-20170908-11:39:04-15323
attr configname Experiment1
attr datetime 20170908-11:39:04
attr experiment Ballwerfen
attr inifile omnetpp.ini
attr iterationvars ""
attr iterationvars2 $repetition=0
attr measurement ""
attr network Playground
attr processid 15323
attr repetition 0
attr replication #0
attr resultdir results
attr runnumber 0
attr seedset 0

vector 6  Playground  anzahl-wuerfe-boy  ETV
vector 0  Playground  anzahl-wuerfe-gesamt  ETV
vector 1  Playground  anzahl-wuerfe-girl  ETV
vector 4  Playground  anzahl-wuerfe-gesamt  ETV
vector 7  Playground  anzahl-wuerfe-lost  ETV
vector 3  Playground  anzahl-wuerfe-lost  ETV
0	1	0	1
0	5	3	2
0	9	6	3
0	13	9	4
0	17	12	5
0	21	15	6
0	25	18	7
0	29	21	8
0	33	32	9
0	37	35	10
0	41	38	11
0	45	41	12
0	49	44	13
0	53	47	14
0	69	86	15
0	73	89	16
0	77	92	17
0	81	95	18
0	85	98	19
0	89	101	20
0	93	104	21
0	97	107	22
0	101	110	23
0	105	113	24
0	109	116	25
0	113	119	26
0	117	122	27
0	121	125	28
0	125	128	29
0	129	131	30
0	133	134	31
0	141	149	32
0	145	152	33
0	149	155	34
0	153	158	35
0	157	161	36
0	161	164	37
0	165	167	38
0	169	170	39
0	177	193	40
0	181	196	41
0	185	199	42
0	189	202	43
0	193	205	44
0	197	208	45
0	201	211	46
0	205	222	47
0	209	225	48
0	213	228	49
0	217	231	50
0	221	234	51
0	225	237	52
0	229	240	53
0	233	243	54
0	237	246	55
0	241	249	56
0	245	252	57
0	249	255	58
0	253	258	59
0	257	261	60
0	261	264	61
0	265	267	62
0	273	290	63
0	281	305	64
0	285	308	65
0	289	311	66
0	293	322	67
0	297	325	68
0	305	348	69
0	309	351	70
0	313	354	71
0	317	357	72
0	321	360	73
0	325	363	74
0	333	378	75
0	337	381	76
0	341	384	77
0	345	387	78
0	353	402	79
0	357	413	80
0	361	416	81
0	365	427	82
0	369	430	83
0	373	433	84
0	377	436	85
0	381	439	86
0	385	442	87
0	393	457	88
0	401	472	89
0	405	475	90
0	409	478	91
0	413	481	92
0	417	484	93
0	421	487	94
0	425	490	95
0	429	493	96
0	433	496	97
0	437	499	98
0	441	502	99
0	445	505	100
0	449	508	101
0	453	511	102
0	457	514	103
0	461	517	104
0	465	520	105
0	469	523	106
0	473	526	107
0	477	529	108
0	481	532	109
0	485	535	110
0	489	538	111
0	493	541	112
0	497	544	113
0	501	547	114
0	509	562	115
0	513	565	116
0	517	568	117
0	521	571	118
0	525	574	119
0	529	577	120
0	533	580	121
0	537	591	122
0	541	594	123
0	545	597	124
0	549	608	125
0	553	611	126
0	557	614	127
0	561	617	128
0	565	620	129
0	569	631	130
0	573	634	131
0	577	637	132
0	581	640	133
0	585	643	134
0	589	654	135
0	593	657	136
0	597	660	137
0	601	663	138
0	605	666	139
0	609	677	140
0	613	680	141
0	617	683	142
0	621	686	143
0	625	689	144
0	629	692	145
0	633	695	146
0	641	718	147
0	645	721	148
0	649	724	149
0	653	735	150
0	657	738	151
0	661	749	152
0	669	764	153
0	673	767	154
0	677	770	155
0	681	773	156
0	689	788	157
0	697	803	158
0	701	806	159
0	705	809	160
0	709	812	161
0	713	815	162
0	721	830	163
0	725	833	164
0	729	844	165
0	733	847	166
0	737	850	167
0	741	853	168
0	745	856	169
0	749	859	170
0	753	862	171
0	757	865	172
0	761	868	173
0	765	871	174
0	769	874	175
0	773	877	176
0	777	880	177
0	781	883	178
0	785	886	179
0	789	889	180
1	2	1	1
1	6	4	2
1	10	7	3
1	14	10	4
1	18	13	5
1	22	16	6
1	26	19	7
1	30	22	8
1	34	33	9
1	38	36	10
1	42	39	11
1	46	42	12
1	50	45	13
1	54	48	14
1	58	60	15
1	62	72	16
1	66	84	17
1	70	87	18
1	74	90	19
1	78	93	20
1	82	96	21
1	86	99	22
1	90	102	23
1	94	105	24
1	98	108	25
1	102	111	26
1	106	114	27
1	110	117	28
1	114	120	29
1	118	123	30
1	122	126	31
1	126	129	32
1	130	132	33
1	134	135	34
1	138	147	35
1	142	150	36
1	146	153	37
1	150	156	38
1	154	159	39
1	158	162	40
1	162	165	41
1	166	168	42
1	170	171	43
1	174	191	44
1	178	194	45
1	182	197	46
1	186	200	47
1	190	203	48
1	194	206	49
1	198	209	50
1	202	212	51
1	206	223	52
1	210	226	53
1	214	229	54
1	218	232	55
1	222	235	56
1	226	238	57
1	230	241	58
1	234	244	59
1	238	247	60
1	242	250	61
1	246	253	62
1	250	256	63
1	254	259	64
1	258	262	65
1	262	265	66
1	266	268	67
1	270	288	68
1	274	291	69
1	278	303	70
1	282	306	71
1	286	309	72
1	290	312	73
1	294	323	74
1	298	326	75
1	302	346	76
1	306	349	77
1	310	352	78
1	314	355	79
1	318	358	80
1	322	361	81
1	326	364	82
1	330	376	83
1	334	379	84
1	338	382	85
1	342	385	86
1	346	388	87
1	350	400	88
1	354	403	89
1	358	414	90
1	362	417	91
1	366	428	92
1	370	431	93
1	374	434	94
1	378	437	95
1	382	440	96
1	386	443	97
1	390	455	98
1	394	458	99
1	398	470	100
1	402	473	101
1	406	476	102
1	410	479	103
1	414	482	104
1	418	485	105
1	422	488	106
1	426	491	107
1	430	494	108
1	434	497	109
1	438	500	110
1	442	503	111
1	446	506	112
1	450	509	113
1	454	512	114
1	458	515	115
1	462	518	116
1	466	521	117
1	470	524	118
1	474	527	119
1	478	530	120
1	482	533	121
1	486	536	122
1	490	539	123
1	494	542	124
1	498	545	125
1	502	548	126
1	506	560	127
1	510	563	128
1	514	566	129
1	518	569	130
1	522	572	131
1	526	575	132
1	530	578	133
1	534	581	134
1	538	592	135
1	542	595	136
1	546	598	137
1	550	609	138
1	554	612	139
1	558	615	140
1	562	618	141
1	566	621	142
1	570	632	143
1	574	635	144
1	578	638	145
1	582	641	146
1	586	644	147
1	590	655	148
1	594	658	149
1	598	661	150
1	602	664	151
1	606	667	152
1	610	678	153
1	614	681	154
1	618	684	155
1	622	687	156
1	626	690	157
1	630	693	158
1	634	696	159
1	638	716	160
1	642	719	161
1	646	722	162
1	650	725	163
1	654	736	164
1	658	739	165
1	662	750	166
1	666	762	167
1	670	765	168
1	674	768	169
1	678	771	170
1	682	774	171
1	686	786	172
1	690	789	173
1	694	801	174
1	698	804	175
1	702	807	176
1	706	810	177
1	710	813	178
1	714	816	179
1	718	828	180
1	722	831	181
1	726	834	182
1	730	845	183
1	734	848	184
1	738	851	185
1	742	854	186
1	746	857	187
1	750	860	188
1	754	863	189
1	758	866	190
1	762	869	191
1	766	872	192
1	770	875	193
1	774	878	194
1	778	881	195
1	782	884	196
1	786	887	197
1	790	890	198
3	57	50	1
3	61	62	2
3	65	74	3
3	137	137	4
3	173	181	5
3	269	278	6
3	277	293	7
3	301	336	8
3	329	366	9
3	349	390	10
3	389	445	11
3	397	460	12
3	505	550	13
3	637	706	14
3	665	752	15
3	685	776	16
3	693	791	17
3	717	818	18
3	793	900	19
4	3	1	1
4	7	4	2
4	11	7	3
4	15	10	4
4	19	13	5
4	23	16	6
4	27	19	7
4	35	33	8
4	39	36	9
4	43	39	10
4	47	42	11
4	51	45	12
4	55	48	13
4	59	60	14
4	63	72	15
4	67	84	16
4	71	87	17
4	75	90	18
4	79	93	19
4	83	96	20
4	87	99	21
4	91	102	22
4	95	105	23
4	99	108	24
4	103	111	25
4	107	114	26
4	111	117	27
4	115	120	28
4	119	123	29
4	123	126	30
4	127	129	31
4	131	132	32
4	135	135	33
4	139	147	34
4	143	150	35
4	147	153	36
4	151	156	37
4	155	159	38
4	159	162	39
4	163	165	40
4	167	168	41
4	175	191	42
4	179	194	43
4	183	197	44
4	187	200	45
4	191	203	46
4	195	206	47
4	199	209	48
4	207	223	49
4	211	226	50
4	215	229	51
4	219	232	52
4	223	235	53
4	227	238	54
4	231	241	55
4	235	244	56
4	239	247	57
4	243	250	58
4	247	253	59
4	251	256	60
4	255	259	61
4	259	262	62
4	263	265	63
4	271	288	64
4	275	291	65
4	279	303	66
4	283	306	67
4	287	309	68
4	295	323	69
4	303	346	70
4	307	349	71
4	311	352	72
4	315	355	73
4	319	358	74
4	323	361	75
4	327	364	76
4	331	376	77
4	335	379	78
4	339	382	79
4	343	385	80
4	347	388	81
4	351	400	82
4	359	414	83
4	367	428	84
4	371	431	85
4	375	434	86
4	379	437	87
4	383	440	88
4	387	443	89
4	391	455	90
4	395	458	91
4	399	470	92
4	403	473	93
4	407	476	94
4	411	479	95
4	415	482	96
4	419	485	97
4	423	488	98
4	427	491	99
4	431	494	100
4	435	497	101
4	439	500	102
4	443	503	103
4	447	506	104
4	451	509	105
4	455	512	106
4	459	515	107
4	463	518	108
4	467	521	109
4	471	524	110
4	475	527	111
4	479	530	112
4	483	533	113
4	487	536	114
4	491	539	115
4	495	542	116
4	499	545	117
4	503	548	118
4	507	560	119
4	511	563	120
4	515	566	121
4	519	569	122
4	523	572	123
4	527	575	124
4	531	578	125
4	539	592	126
4	543	595	127
4	551	609	128
4	555	612	129
4	559	615	130
4	563	618	131
4	571	632	132
4	575	635	133
4	579	638	134
4	583	641	135
4	591	655	136
4	595	658	137
4	599	661	138
4	603	664	139
4	611	678	140
4	615	681	141
4	619	684	142
4	623	687	143
4	627	690	144
4	631	693	145
4	639	716	146
4	643	719	147
4	647	722	148
4	655	736	149
4	663	750	150
4	667	762	151
4	671	765	152
4	675	768	153
4	679	771	154
4	683	774	155
4	687	786	156
4	691	789	157
4	695	801	158
4	699	804	159
4	703	807	160
4	707	810	161
4	711	813	162
4	715	816	163
4	719	828	164
4	723	831	165
4	731	845	166
4	735	848	167
4	739	851	168
4	743	854	169
4	747	857	170
4	751	860	171
4	755	863	172
4	759	866	173
4	763	869	174
4	767	872	175
4	771	875	176
4	775	878	177
4	779	881	178
4	783	884	179
4	787	887	180
6	0	0	1
6	4	3	2
6	8	6	3
6	12	9	4
6	16	12	5
6	20	15	6
6	24	18	7
6	28	21	8
6	32	32	9
6	36	35	10
6	40	38	11
6	44	41	12
6	48	44	13
6	52	47	14
6	56	50	15
6	60	62	16
6	64	74	17
6	68	86	18
6	72	89	19
6	76	92	20
6	80	95	21
6	84	98	22
6	88	101	23
6	92	104	24
6	96	107	25
6	100	110	26
6	104	113	27
6	108	116	28
6	112	119	29
6	116	122	30
6	120	125	31
6	124	128	32
6	128	131	33
6	132	134	34
6	136	137	35
6	140	149	36
6	144	152	37
6	148	155	38
6	152	158	39
6	156	161	40
6	160	164	41
6	164	167	42
6	168	170	43
6	172	181	44
6	176	193	45
6	180	196	46
6	184	199	47
6	188	202	48
6	192	205	49
6	196	208	50
6	200	211	51
6	204	222	52
6	208	225	53
6	212	228	54
6	216	231	55
6	220	234	56
6	224	237	57
6	228	240	58
6	232	243	59
6	236	246	60
6	240	249	61
6	244	252	62
6	248	255	63
6	252	258	64
6	256	261	65
6	260	264	66
6	264	267	67
6	268	278	68
6	272	290	69
6	276	293	70
6	280	305	71
6	284	308	72
6	288	311	73
6	292	322	74
6	296	325	75
6	300	336	76
6	304	348	77
6	308	351	78
6	312	354	79
6	316	357	80
6	320	360	81
6	324	363	82
6	328	366	83
6	332	378	84
6	336	381	85
6	340	384	86
6	344	387	87
6	348	390	88
6	352	402	89
6	356	413	90
6	360	416	91
6	364	427	92
6	368	430	93
6	372	433	94
6	376	436	95
6	380	439	96
6	384	442	97
6	388	445	98
6	392	457	99
6	396	460	100
6	400	472	101
6	404	475	102
6	408	478	103
6	412	481	104
6	416	484	105
6	420	487	106
6	424	490	107
6	428	493	108
6	432	496	109
6	436	499	110
6	440	502	111
6	444	505	112
6	448	508	113
6	452	511	114
6	456	514	115
6	460	517	116
6	464	520	117
6	468	523	118
6	472	526	119
6	476	529	120
6	480	532	121
6	484	535	122
6	488	538	123
6	492	541	124
6	496	544	125
6	500	547	126
6	504	550	127
6	508	562	128
6	512	565	129
6	516	568	130
6	520	571	131
6	524	574	132
6	528	577	133
6	532	580	134
6	536	591	135
6	540	594	136
6	544	597	137
6	548	608	138
6	552	611	139
6	556	614	140
6	560	617	141
6	564	620	142
6	568	631	143
6	572	634	144
6	576	637	145
6	580	640	146
6	584	643	147
6	588	654	148
6	592	657	149
6	596	660	150
6	600	663	151
6	604	666	152
6	608	677	153
6	612	680	154
6	616	683	155
6	620	686	156
6	624	689	157
6	628	692	158
6	632	695	159
6	636	706	160
6	640	718	161
6	644	721	162
6	648	724	163
6	652	735	164
6	656	738	165
6	660	749	166
6	664	752	167
6	668	764	168
6	672	767	169
6	676	770	170
6	680	773	171
6	684	776	172
6	688	788	173
6	692	791	174
6	696	803	175
6	700	806	176
6	704	809	177
6	708	812	178
6	712	815	179
6	716	818	180
6	720	830	181
6	724	833	182
6	728	844	183
6	732	847	184
6	736	850	185
6	740	853	186
6	744	856	187
6	748	859	188
6	752	862	189
6	756	865	190
6	760	868	191
6	764	871	192
6	768	874	193
6	772	877	194
6	776	880	195
6	780	883	196
6	784	886	197
6	788	889	198
6	792	900	199
7	31	22	1
7	171	171	2
7	203	212	3
7	267	268	4
7	291	312	5
7	299	326	6
7	355	403	7
7	363	417	8
7	535	581	9
7	547	598	10
7	567	621	11
7	587	644	12
7	607	667	13
7	635	696	14
7	651	725	15
7	659	739	16
7	727	834	17
7	791	890	18
